# Probe 0 (0.85 0 0.1)
# Probe 1 (0.85 0 0.2)
# Probe 2 (0.85 0 0.3)
#       Probe             0             1             2
#        Time
            0      -878.644      -1947.83      -2.88517
            0      -878.644      -1947.83      -2.88517
        0.005       1568.32       499.086      -2.88338
        0.005       1568.32       499.086      -2.88338
         0.01       1568.35       499.096      -2.88313
         0.01       1568.35       499.096      -2.88313
        0.015       1568.35       499.098      -2.88321
        0.015       1568.35       499.098      -2.88321
         0.02       1568.35       499.101      -2.88288
         0.02       1568.35       499.101      -2.88288
        0.025       1568.36       499.104      -2.88306
        0.025       1568.36       499.104      -2.88306
         0.03       1568.37       499.107      -2.88275
         0.03       1568.37       499.107      -2.88275
        0.035       1568.37        499.11      -2.88252
        0.035       1568.37        499.11      -2.88252
         0.04       1568.38       499.114       -2.8827
         0.04       1568.38       499.114       -2.8827
        0.045       1568.39       499.119      -2.88242
        0.045       1568.39       499.119      -2.88242
         0.05       1568.39       499.123      -2.88234
         0.05       1568.39       499.123      -2.88234
        0.055        1568.4       499.128      -2.88216
        0.055        1568.4       499.128      -2.88216
         0.06       1568.41       499.134      -2.88222
         0.06       1568.41       499.134      -2.88222
        0.065       1568.42        499.14      -2.88216
        0.065       1568.42        499.14      -2.88216
         0.07       1568.43       499.147      -2.88207
         0.07       1568.43       499.147      -2.88207
        0.075       1568.44       499.154      -2.88189
        0.075       1568.44       499.154      -2.88189
         0.08       1568.46       499.163      -2.88171
         0.08       1568.46       499.163      -2.88171
        0.085       1568.47       499.171      -2.88187
        0.085       1568.47       499.171      -2.88187
         0.09       1568.48       499.182       -2.8816
         0.09       1568.48       499.182       -2.8816
         0.09       1568.48       499.182       -2.8816
        0.095        1568.5        499.19      -2.88148
        0.095        1568.5        499.19      -2.88148
        0.095        1568.5        499.19      -2.88148
          0.1       1568.52       499.203      -2.88134
          0.1       1568.52       499.203      -2.88134
          0.1       1568.52       499.203      -2.88134
        0.105       1568.53       499.214      -2.88138
        0.105       1568.53       499.214      -2.88138
        0.105       1568.53       499.214      -2.88138
         0.11       1568.55       499.226      -2.88113
         0.11       1568.55       499.226      -2.88113
        0.115       1568.57        499.24       -2.8811
        0.115       1568.57        499.24       -2.8811
         0.12       1568.59       499.254      -2.88087
         0.12       1568.59       499.254      -2.88087
        0.125       1568.61       499.269      -2.88091
        0.125       1568.61       499.269      -2.88091
         0.13       1568.64       499.285      -2.88066
         0.13       1568.64       499.285      -2.88066
        0.135       1568.66       499.302      -2.88065
        0.135       1568.66       499.302      -2.88065
         0.14       1568.69       499.321      -2.88046
         0.14       1568.69       499.321      -2.88046
        0.145       1568.72        499.34      -2.88031
        0.145       1568.72        499.34      -2.88031
         0.15       1568.74        499.36      -2.88026
         0.15       1568.74        499.36      -2.88026
        0.155       1568.77       499.381       -2.8801
        0.155       1568.77       499.381       -2.8801
         0.16       1568.81       499.404      -2.87989
         0.16       1568.81       499.404      -2.87989
        0.165       1568.84       499.429      -2.87981
        0.165       1568.84       499.429      -2.87981
         0.17       1568.87       499.453      -2.87967
         0.17       1568.87       499.453      -2.87967
        0.175       1568.91        499.48      -2.87951
        0.175       1568.91        499.48      -2.87951
         0.18       1568.95       499.509      -2.87926
         0.18       1568.95       499.509      -2.87926
        0.185       1568.99       499.538      -2.87924
        0.185       1568.99       499.538      -2.87924
         0.19       1569.03        499.57      -2.87909
         0.19       1569.03        499.57      -2.87909
        0.195       1569.07       499.602      -2.87882
        0.195       1569.07       499.602      -2.87882
        0.195       1569.07       499.602      -2.87882
          0.2       1569.12       499.638      -2.87866
          0.2       1569.12       499.638      -2.87866
        0.205       1569.17       499.673      -2.87853
        0.205       1569.17       499.673      -2.87853
        0.205       1569.17       499.673      -2.87853
         0.21       1569.22       499.712      -2.87838
         0.21       1569.22       499.712      -2.87838
         0.21       1569.22       499.712      -2.87838
        0.215       1569.27       499.751      -2.87815
        0.215       1569.27       499.751      -2.87815
         0.22       1569.33       499.793      -2.87795
         0.22       1569.33       499.793      -2.87795
         0.22       1569.33       499.793      -2.87795
        0.225       1569.38       499.836      -2.87785
        0.225       1569.38       499.836      -2.87785
         0.23       1569.44       499.882      -2.87777
         0.23       1569.44       499.882      -2.87777
        0.235        1569.5       499.929      -2.87742
        0.235        1569.5       499.929      -2.87742
         0.24       1569.57        499.98      -2.87715
         0.24       1569.57        499.98      -2.87715
        0.245       1569.63       500.031      -2.87714
        0.245       1569.63       500.031      -2.87714
         0.25        1569.7       500.086      -2.87706
         0.25        1569.7       500.086      -2.87706
        0.255       1569.77       500.142      -2.87651
        0.255       1569.77       500.142      -2.87651
         0.26       1569.85       500.203      -2.87632
         0.26       1569.85       500.203      -2.87632
        0.265       1569.92       500.263      -2.87653
        0.265       1569.92       500.263      -2.87653
         0.27       1570.01       500.329      -2.87598
         0.27       1570.01       500.329      -2.87598
        0.275       1570.09       500.395      -2.87576
        0.275       1570.09       500.395      -2.87576
         0.28       1570.17       500.465      -2.87586
         0.28       1570.17       500.465      -2.87586
        0.285       1570.26       500.538      -2.87562
        0.285       1570.26       500.538      -2.87562
         0.29       1570.35       500.613       -2.8753
         0.29       1570.35       500.613       -2.8753
        0.295       1570.45       500.692      -2.87498
        0.295       1570.45       500.692      -2.87498
        0.295       1570.45       500.692      -2.87498
          0.3       1570.55       500.773      -2.87487
          0.3       1570.55       500.773      -2.87487
        0.305       1570.65       500.858      -2.87481
        0.305       1570.65       500.858      -2.87481
         0.31       1570.75       500.946       -2.8744
         0.31       1570.75       500.946       -2.8744
         0.31       1570.75       500.946       -2.8744
        0.315       1570.86       501.036      -2.87427
        0.315       1570.86       501.036      -2.87427
         0.32       1570.98       501.132      -2.87411
         0.32       1570.98       501.132      -2.87411
        0.325       1571.09        501.23      -2.87379
        0.325       1571.09        501.23      -2.87379
         0.33       1571.21       501.332      -2.87364
         0.33       1571.21       501.332      -2.87364
        0.335       1571.33       501.436      -2.87352
        0.335       1571.33       501.436      -2.87352
         0.34       1571.46       501.546      -2.87344
         0.34       1571.46       501.546      -2.87344
        0.345       1571.59        501.66       -2.8731
        0.345       1571.59        501.66       -2.8731
         0.35       1571.73       501.777      -2.87287
         0.35       1571.73       501.777      -2.87287
        0.355       1571.87       501.897      -2.87258
        0.355       1571.87       501.897      -2.87258
         0.36       1572.01       502.023      -2.87256
         0.36       1572.01       502.023      -2.87256
        0.365       1572.16       502.153      -2.87238
        0.365       1572.16       502.153      -2.87238
         0.37       1572.31       502.286      -2.87219
         0.37       1572.31       502.286      -2.87219
        0.375       1572.47       502.425      -2.87197
        0.375       1572.47       502.425      -2.87197
         0.38       1572.63       502.566      -2.87176
         0.38       1572.63       502.566      -2.87176
        0.385        1572.8       502.714      -2.87173
        0.385        1572.8       502.714      -2.87173
         0.39       1572.97       502.867      -2.87136
         0.39       1572.97       502.867      -2.87136
        0.395       1573.14       503.024      -2.87107
        0.395       1573.14       503.024      -2.87107
          0.4       1573.32       503.186      -2.87092
          0.4       1573.32       503.186      -2.87092
        0.405       1573.51       503.353      -2.87078
        0.405       1573.51       503.353      -2.87078
         0.41        1573.7       503.526      -2.87061
         0.41        1573.7       503.526      -2.87061
        0.415       1573.89       503.702       -2.8704
        0.415       1573.89       503.702       -2.8704
         0.42        1574.1       503.885      -2.87024
         0.42        1574.1       503.885      -2.87024
        0.425        1574.3       504.073       -2.8701
        0.425        1574.3       504.073       -2.8701
         0.43       1574.51       504.267       -2.8699
         0.43       1574.51       504.267       -2.8699
        0.435       1574.73       504.464      -2.86972
        0.435       1574.73       504.464      -2.86972
         0.44       1574.95        504.67      -2.86956
         0.44       1574.95        504.67      -2.86956
        0.445       1575.18        504.88      -2.86944
        0.445       1575.18        504.88      -2.86944
         0.45       1575.41       505.096      -2.86917
         0.45       1575.41       505.096      -2.86917
        0.455       1575.65       505.318      -2.86904
        0.455       1575.65       505.318      -2.86904
         0.46        1575.9       505.546      -2.86892
         0.46        1575.9       505.546      -2.86892
        0.465       1576.14       505.779      -2.86882
        0.465       1576.14       505.779      -2.86882
         0.47       1576.41       506.022      -2.86866
         0.47       1576.41       506.022      -2.86866
        0.475       1576.66       506.265       -2.8685
        0.475       1576.66       506.265       -2.8685
         0.48       1576.94       506.521      -2.86838
         0.48       1576.94       506.521      -2.86838
        0.485       1577.21        506.78      -2.86825
        0.485       1577.21        506.78      -2.86825
         0.49       1577.49       507.046      -2.86808
         0.49       1577.49       507.046      -2.86808
        0.495       1577.78       507.319      -2.86798
        0.495       1577.78       507.319      -2.86798
          0.5       1578.07       507.598      -2.86782
          0.5       1578.07       507.598      -2.86782
        0.505       1578.37       507.885      -2.86772
        0.505       1578.37       507.885      -2.86772
         0.51       1578.67       508.177      -2.86756
         0.51       1578.67       508.177      -2.86756
        0.515       1578.99       508.479      -2.86747
        0.515       1578.99       508.479      -2.86747
         0.52        1579.3       508.784      -2.86735
         0.52        1579.3       508.784      -2.86735
        0.525       1579.63         509.1      -2.86727
        0.525       1579.63         509.1      -2.86727
         0.53       1579.96        509.42      -2.86713
         0.53       1579.96        509.42      -2.86713
        0.535        1580.3       509.749      -2.86704
        0.535        1580.3       509.749      -2.86704
         0.54       1580.65       510.084      -2.86694
         0.54       1580.65       510.084      -2.86694
        0.545          1581       510.427      -2.86687
        0.545          1581       510.427      -2.86687
         0.55       1581.36       510.776      -2.86676
         0.55       1581.36       510.776      -2.86676
        0.555       1581.72       511.135      -2.86668
        0.555       1581.72       511.135      -2.86668
         0.56       1582.09       511.499      -2.86659
         0.56       1582.09       511.499      -2.86659
        0.565       1582.47       511.872      -2.86653
        0.565       1582.47       511.872      -2.86653
         0.57       1582.86       512.251      -2.86643
         0.57       1582.86       512.251      -2.86643
        0.575       1583.25        512.64      -2.86639
        0.575       1583.25        512.64      -2.86639
         0.58       1583.65       513.033      -2.86625
         0.58       1583.65       513.033      -2.86625
        0.585       1584.06       513.438      -2.86624
        0.585       1584.06       513.438      -2.86624
         0.59       1584.47       513.848      -2.86619
         0.59       1584.47       513.848      -2.86619
        0.595       1584.89       514.267       -2.8661
        0.595       1584.89       514.267       -2.8661
          0.6       1585.32       514.693        -2.866
          0.6       1585.32       514.693        -2.866
        0.605       1585.75       515.126      -2.86599
        0.605       1585.75       515.126      -2.86599
         0.61       1586.19       515.568      -2.86589
         0.61       1586.19       515.568      -2.86589
        0.615       1586.64       516.017      -2.86591
        0.615       1586.64       516.017      -2.86591
         0.62        1587.1       516.475       -2.8658
         0.62        1587.1       516.475       -2.8658
        0.625       1587.56       516.938      -2.86583
        0.625       1587.56       516.938      -2.86583
         0.63       1588.03       517.413      -2.86571
         0.63       1588.03       517.413      -2.86571
        0.635        1588.5       517.893      -2.86575
        0.635        1588.5       517.893      -2.86575
         0.64       1588.99       518.381      -2.86566
         0.64       1588.99       518.381      -2.86566
        0.645       1589.48       518.876      -2.86565
        0.645       1589.48       518.876      -2.86565
         0.65       1589.97        519.38       -2.8656
         0.65       1589.97        519.38       -2.8656
        0.655       1590.48       519.894      -2.86557
        0.655       1590.48       519.894      -2.86557
         0.66       1590.99       520.412      -2.86552
         0.66       1590.99       520.412      -2.86552
        0.665       1591.51        520.94       -2.8655
        0.665       1591.51        520.94       -2.8655
         0.67       1592.03       521.474      -2.86547
         0.67       1592.03       521.474      -2.86547
        0.675       1592.56       522.017      -2.86543
        0.675       1592.56       522.017      -2.86543
         0.68        1593.1       522.566       -2.8654
         0.68        1593.1       522.566       -2.8654
        0.685       1593.65       523.125      -2.86538
        0.685       1593.65       523.125      -2.86538
         0.69        1594.2       523.689      -2.86534
         0.69        1594.2       523.689      -2.86534
        0.695       1594.76       524.263      -2.86532
        0.695       1594.76       524.263      -2.86532
          0.7       1595.32       524.841      -2.86529
          0.7       1595.32       524.841      -2.86529
        0.705       1595.89       525.431      -2.86529
        0.705       1595.89       525.431      -2.86529
         0.71       1596.47       526.026      -2.86526
         0.71       1596.47       526.026      -2.86526
        0.715       1597.06       526.629      -2.86524
        0.715       1597.06       526.629      -2.86524
         0.72       1597.64       527.237      -2.86522
         0.72       1597.64       527.237      -2.86522
        0.725       1598.25       527.855       -2.8652
        0.725       1598.25       527.855       -2.8652
         0.73       1598.85       528.478       -2.8652
         0.73       1598.85       528.478       -2.8652
        0.735       1599.46        529.11      -2.86519
        0.735       1599.46        529.11      -2.86519
         0.74       1600.07       529.746      -2.86517
         0.74       1600.07       529.746      -2.86517
        0.745        1600.7       530.392      -2.86515
        0.745        1600.7       530.392      -2.86515
         0.75       1601.33       531.044      -2.86518
         0.75       1601.33       531.044      -2.86518
        0.755       1601.96       531.701      -2.86514
        0.755       1601.96       531.701      -2.86514
         0.76        1602.6       532.365      -2.86517
         0.76        1602.6       532.365      -2.86517
        0.765       1603.25       533.038      -2.86513
        0.765       1603.25       533.038      -2.86513
         0.77        1603.9       533.716      -2.86513
         0.77        1603.9       533.716      -2.86513
        0.775       1604.55       534.399      -2.86511
        0.775       1604.55       534.399      -2.86511
         0.78       1605.22       535.089      -2.86516
         0.78       1605.22       535.089      -2.86516
        0.785       1605.89       535.786       -2.8651
        0.785       1605.89       535.786       -2.8651
         0.79       1606.56       536.489      -2.86511
         0.79       1606.56       536.489      -2.86511
        0.795       1607.24       537.197      -2.86506
        0.795       1607.24       537.197      -2.86506
          0.8       1607.92       537.911      -2.86508
          0.8       1607.92       537.911      -2.86508
        0.805       1608.61       538.631      -2.86506
        0.805       1608.61       538.631      -2.86506
         0.81       1609.31       539.356      -2.86508
         0.81       1609.31       539.356      -2.86508
        0.815       1610.01       540.088      -2.86501
        0.815       1610.01       540.088      -2.86501
         0.82       1610.72       540.824      -2.86504
         0.82       1610.72       540.824      -2.86504
        0.825       1611.42       541.566        -2.865
        0.825       1611.42       541.566        -2.865
         0.83       1612.14       542.312      -2.86501
         0.83       1612.14       542.312      -2.86501
        0.835       1612.86       543.064      -2.86496
        0.835       1612.86       543.064      -2.86496
         0.84       1613.58        543.82      -2.86495
         0.84       1613.58        543.82      -2.86495
        0.845       1614.31       544.582      -2.86492
        0.845       1614.31       544.582      -2.86492
         0.85       1615.04       545.348      -2.86491
         0.85       1615.04       545.348      -2.86491
        0.855       1615.78       546.118      -2.86486
        0.855       1615.78       546.118      -2.86486
         0.86       1616.52       546.892      -2.86483
         0.86       1616.52       546.892      -2.86483
        0.865       1617.26       547.671      -2.86475
        0.865       1617.26       547.671      -2.86475
         0.87       1618.01       548.454      -2.86473
         0.87       1618.01       548.454      -2.86473
        0.875       1618.76       549.241      -2.86466
        0.875       1618.76       549.241      -2.86466
         0.88       1619.52       550.032      -2.86457
         0.88       1619.52       550.032      -2.86457
        0.885       1620.28       550.826      -2.86449
        0.885       1620.28       550.826      -2.86449
         0.89       1621.04       551.624      -2.86441
         0.89       1621.04       551.624      -2.86441
        0.895       1621.81       552.425       -2.8643
        0.895       1621.81       552.425       -2.8643
          0.9       1622.58        553.23      -2.86421
          0.9       1622.58        553.23      -2.86421
        0.905       1623.35       554.038      -2.86406
        0.905       1623.35       554.038      -2.86406
         0.91       1624.13       554.849      -2.86393
         0.91       1624.13       554.849      -2.86393
        0.915        1624.9       555.663       -2.8638
        0.915        1624.9       555.663       -2.8638
         0.92       1625.69       556.479      -2.86366
         0.92       1625.69       556.479      -2.86366
        0.925       1626.47       557.299      -2.86347
        0.925       1626.47       557.299      -2.86347
         0.93       1627.26        558.12       -2.8633
         0.93       1627.26        558.12       -2.8633
        0.935       1628.05       558.944      -2.86308
        0.935       1628.05       558.944      -2.86308
         0.94       1628.84       559.771      -2.86288
         0.94       1628.84       559.771      -2.86288
        0.945       1629.63       560.599      -2.86266
        0.945       1629.63       560.599      -2.86266
         0.95       1630.43       561.429      -2.86241
         0.95       1630.43       561.429      -2.86241
        0.955       1631.23       562.261      -2.86212
        0.955       1631.23       562.261      -2.86212
         0.96       1632.03       563.095      -2.86184
         0.96       1632.03       563.095      -2.86184
        0.965       1632.83       563.931      -2.86153
        0.965       1632.83       563.931      -2.86153
         0.97       1633.63       564.768      -2.86118
         0.97       1633.63       564.768      -2.86118
        0.975       1634.44       565.606      -2.86083
        0.975       1634.44       565.606      -2.86083
         0.98       1635.25       566.445      -2.86043
         0.98       1635.25       566.445      -2.86043
        0.985       1636.05       567.286      -2.86002
        0.985       1636.05       567.286      -2.86002
         0.99       1636.86       568.127       -2.8596
         0.99       1636.86       568.127       -2.8596
        0.995       1637.68        568.97      -2.85914
        0.995       1637.68        568.97      -2.85914
            1       1638.49       569.813      -2.85862
            1       1638.49       569.813      -2.85862
        1.005       1639.41       570.701      -2.85617
        1.005       1639.41       570.701      -2.85617
         1.01       1640.23       571.549       -2.8555
         1.01       1640.23       571.549       -2.8555
        1.015       1641.05       572.397       -2.8548
        1.015       1641.05       572.397       -2.8548
         1.02       1641.87       573.245      -2.85413
         1.02       1641.87       573.245      -2.85413
        1.025        1642.7       574.094      -2.85336
        1.025        1642.7       574.094      -2.85336
         1.03       1643.52       574.943      -2.85258
         1.03       1643.52       574.943      -2.85258
        1.035       1644.34       575.792      -2.85177
        1.035       1644.34       575.792      -2.85177
         1.04       1645.17       576.641      -2.85093
         1.04       1645.17       576.641      -2.85093
        1.045          1646       577.491      -2.84999
        1.045          1646       577.491      -2.84999
         1.05       1646.83       578.341      -2.84906
         1.05       1646.83       578.341      -2.84906
        1.055       1647.65       579.191      -2.84803
        1.055       1647.65       579.191      -2.84803
         1.06       1648.49       580.042      -2.84695
         1.06       1648.49       580.042      -2.84695
        1.065       1649.31       580.891      -2.84589
        1.065       1649.31       580.891      -2.84589
         1.07       1650.15       581.742      -2.84467
         1.07       1650.15       581.742      -2.84467
        1.075       1650.98       582.592      -2.84359
        1.075       1650.98       582.592      -2.84359
         1.08       1651.81       583.442      -2.84229
         1.08       1651.81       583.442      -2.84229
        1.085       1652.65       584.292      -2.84086
        1.085       1652.65       584.292      -2.84086
         1.09       1653.49       585.141      -2.83965
         1.09       1653.49       585.141      -2.83965
        1.095       1654.32       585.991      -2.83819
        1.095       1654.32       585.991      -2.83819
          1.1       1655.16       586.839      -2.83668
          1.1       1655.16       586.839      -2.83668
        1.105          1656       587.689      -2.83513
        1.105          1656       587.689      -2.83513
         1.11       1656.84       588.538      -2.83325
         1.11       1656.84       588.538      -2.83325
        1.115       1657.67       589.384       -2.8321
        1.115       1657.67       589.384       -2.8321
         1.12       1658.52       590.234      -2.83006
         1.12       1658.52       590.234      -2.83006
        1.125       1659.36       591.081      -2.82837
        1.125       1659.36       591.081      -2.82837
         1.13        1660.2       591.927      -2.82643
         1.13        1660.2       591.927      -2.82643
        1.135       1661.04       592.773       -2.8245
        1.135       1661.04       592.773       -2.8245
         1.14       1661.89       593.621      -2.82252
         1.14       1661.89       593.621      -2.82252
        1.145       1662.73       594.466       -2.8203
        1.145       1662.73       594.466       -2.8203
         1.15       1663.57       595.311      -2.81831
         1.15       1663.57       595.311      -2.81831
        1.155       1664.42       596.157      -2.81602
        1.155       1664.42       596.157      -2.81602
         1.16       1665.26       597.001      -2.81383
         1.16       1665.26       597.001      -2.81383
        1.165       1666.11       597.845      -2.81126
        1.165       1666.11       597.845      -2.81126
         1.17       1666.96       598.689      -2.80892
         1.17       1666.96       598.689      -2.80892
        1.175       1667.81       599.533       -2.8063
        1.175       1667.81       599.533       -2.8063
         1.18       1668.66       600.376      -2.80378
         1.18       1668.66       600.376      -2.80378
        1.185       1669.51        601.22      -2.80089
        1.185       1669.51        601.22      -2.80089
         1.19       1670.36       602.064      -2.79823
         1.19       1670.36       602.064      -2.79823
        1.195       1671.21       602.906      -2.79521
        1.195       1671.21       602.906      -2.79521
          1.2       1672.07        603.75      -2.79238
          1.2       1672.07        603.75      -2.79238
        1.205       1672.92       604.594      -2.78908
        1.205       1672.92       604.594      -2.78908
         1.21       1673.78       605.437      -2.78619
         1.21       1673.78       605.437      -2.78619
        1.215       1674.63       606.281      -2.78269
        1.215       1674.63       606.281      -2.78269
         1.22       1675.49       607.125      -2.77952
         1.22       1675.49       607.125      -2.77952
        1.225       1676.35       607.969      -2.77585
        1.225       1676.35       607.969      -2.77585
         1.23       1677.21       608.814      -2.77251
         1.23       1677.21       608.814      -2.77251
        1.235       1678.07       609.659      -2.76868
        1.235       1678.07       609.659      -2.76868
         1.24       1678.94       610.505      -2.76511
         1.24       1678.94       610.505      -2.76511
        1.245       1679.81       611.352       -2.7609
        1.245       1679.81       611.352       -2.7609
         1.25       1680.67       612.199      -2.75728
         1.25       1680.67       612.199      -2.75728
        1.255       1681.54       613.048       -2.7531
        1.255       1681.54       613.048       -2.7531
         1.26       1682.41       613.898      -2.74864
         1.26       1682.41       613.898      -2.74864
        1.265       1683.29       614.748      -2.74475
        1.265       1683.29       614.748      -2.74475
         1.27       1684.16       615.599      -2.74005
         1.27       1684.16       615.599      -2.74005
        1.275       1685.04       616.453       -2.7355
        1.275       1685.04       616.453       -2.7355
         1.28       1685.92       617.306      -2.73096
         1.28       1685.92       617.306      -2.73096
        1.285        1686.8       618.164      -2.72616
        1.285        1686.8       618.164      -2.72616
         1.29       1687.68       619.021      -2.72121
         1.29       1687.68       619.021      -2.72121
        1.295       1688.57       619.882      -2.71591
        1.295       1688.57       619.882      -2.71591
          1.3       1689.46       620.744      -2.71106
          1.3       1689.46       620.744      -2.71106
        1.305       1690.35       621.607      -2.70544