# Probe 0 (0.85 0 0.2)
#       Probe             0
#        Time
            0      -1947.83
            0      -1947.83
        0.005       499.086
        0.005       499.086
         0.01       499.096
         0.01       499.096
        0.015       499.098
        0.015       499.098
         0.02       499.101
         0.02       499.101
        0.025       499.104
        0.025       499.104
         0.03       499.107
         0.03       499.107
        0.035        499.11
        0.035        499.11
         0.04       499.114
         0.04       499.114
        0.045       499.119
        0.045       499.119
         0.05       499.123
         0.05       499.123
        0.055       499.128
        0.055       499.128
         0.06       499.134
         0.06       499.134
        0.065        499.14
        0.065        499.14
         0.07       499.147
         0.07       499.147
        0.075       499.154
        0.075       499.154
         0.08       499.163
         0.08       499.163
        0.085       499.171
        0.085       499.171
         0.09       499.182
         0.09       499.182
         0.09       499.182
        0.095        499.19
        0.095        499.19
        0.095        499.19
          0.1       499.203
          0.1       499.203
          0.1       499.203
        0.105       499.214
        0.105       499.214
        0.105       499.214
         0.11       499.226
         0.11       499.226
        0.115        499.24
        0.115        499.24
         0.12       499.254
         0.12       499.254
        0.125       499.269
        0.125       499.269
         0.13       499.285
         0.13       499.285
        0.135       499.302
        0.135       499.302
         0.14       499.321
         0.14       499.321
        0.145        499.34
        0.145        499.34
         0.15        499.36
         0.15        499.36
        0.155       499.381
        0.155       499.381
         0.16       499.404
         0.16       499.404
        0.165       499.429
        0.165       499.429
         0.17       499.453
         0.17       499.453
        0.175        499.48
        0.175        499.48
         0.18       499.509
         0.18       499.509
        0.185       499.538
        0.185       499.538
         0.19        499.57
         0.19        499.57
        0.195       499.602
        0.195       499.602
        0.195       499.602
          0.2       499.638
          0.2       499.638
        0.205       499.673
        0.205       499.673
        0.205       499.673
         0.21       499.712
         0.21       499.712
         0.21       499.712
        0.215       499.751
        0.215       499.751
         0.22       499.793
         0.22       499.793
         0.22       499.793
        0.225       499.836
        0.225       499.836
         0.23       499.882
         0.23       499.882
        0.235       499.929
        0.235       499.929
         0.24        499.98
         0.24        499.98
        0.245       500.031
        0.245       500.031
         0.25       500.086
         0.25       500.086
        0.255       500.142
        0.255       500.142
         0.26       500.203
         0.26       500.203
        0.265       500.263
        0.265       500.263
         0.27       500.329
         0.27       500.329
        0.275       500.395
        0.275       500.395
         0.28       500.465
         0.28       500.465
        0.285       500.538
        0.285       500.538
         0.29       500.613
         0.29       500.613
        0.295       500.692
        0.295       500.692
        0.295       500.692
          0.3       500.773
          0.3       500.773
        0.305       500.858
        0.305       500.858
         0.31       500.946
         0.31       500.946
         0.31       500.946
        0.315       501.036
        0.315       501.036
         0.32       501.132
         0.32       501.132
        0.325        501.23
        0.325        501.23
         0.33       501.332
         0.33       501.332
        0.335       501.436
        0.335       501.436
         0.34       501.546
         0.34       501.546
        0.345        501.66
        0.345        501.66
         0.35       501.777
         0.35       501.777
        0.355       501.897
        0.355       501.897
         0.36       502.023
         0.36       502.023
        0.365       502.153
        0.365       502.153
         0.37       502.286
         0.37       502.286
        0.375       502.425
        0.375       502.425
         0.38       502.566
         0.38       502.566
        0.385       502.714
        0.385       502.714
         0.39       502.867
         0.39       502.867
        0.395       503.024
        0.395       503.024
          0.4       503.186
          0.4       503.186
        0.405       503.353
        0.405       503.353
         0.41       503.526
         0.41       503.526
        0.415       503.702
        0.415       503.702
         0.42       503.885
         0.42       503.885
        0.425       504.073
        0.425       504.073
         0.43       504.267
         0.43       504.267
        0.435       504.464
        0.435       504.464
         0.44        504.67
         0.44        504.67
        0.445        504.88
        0.445        504.88
         0.45       505.096
         0.45       505.096
        0.455       505.318
        0.455       505.318
         0.46       505.546
         0.46       505.546
        0.465       505.779
        0.465       505.779
         0.47       506.022
         0.47       506.022
        0.475       506.265
        0.475       506.265
         0.48       506.521
         0.48       506.521
        0.485        506.78
        0.485        506.78
         0.49       507.046
         0.49       507.046
        0.495       507.319
        0.495       507.319
          0.5       507.598
          0.5       507.598
        0.505       507.885
        0.505       507.885
         0.51       508.177
         0.51       508.177
        0.515       508.479
        0.515       508.479
         0.52       508.784
         0.52       508.784
        0.525         509.1
        0.525         509.1
         0.53        509.42
         0.53        509.42
        0.535       509.749
        0.535       509.749
         0.54       510.084
         0.54       510.084
        0.545       510.427
        0.545       510.427
         0.55       510.776
         0.55       510.776
        0.555       511.135
        0.555       511.135
         0.56       511.499
         0.56       511.499
        0.565       511.872
        0.565       511.872
         0.57       512.251
         0.57       512.251
        0.575        512.64
        0.575        512.64
         0.58       513.033
         0.58       513.033
        0.585       513.438
        0.585       513.438
         0.59       513.848
         0.59       513.848
        0.595       514.267
        0.595       514.267
          0.6       514.693
          0.6       514.693
        0.605       515.126
        0.605       515.126
         0.61       515.568
         0.61       515.568
        0.615       516.017
        0.615       516.017
         0.62       516.475
         0.62       516.475
        0.625       516.938
        0.625       516.938
         0.63       517.413
         0.63       517.413
        0.635       517.893
        0.635       517.893
         0.64       518.381
         0.64       518.381
        0.645       518.876
        0.645       518.876
         0.65        519.38
         0.65        519.38
        0.655       519.894
        0.655       519.894
         0.66       520.412
         0.66       520.412
        0.665        520.94
        0.665        520.94
         0.67       521.474
         0.67       521.474
        0.675       522.017
        0.675       522.017
         0.68       522.566
         0.68       522.566
        0.685       523.125
        0.685       523.125
         0.69       523.689
         0.69       523.689
        0.695       524.263
        0.695       524.263
          0.7       524.841
          0.7       524.841
        0.705       525.431
        0.705       525.431
         0.71       526.026
         0.71       526.026
        0.715       526.629
        0.715       526.629
         0.72       527.237
         0.72       527.237
        0.725       527.855
        0.725       527.855
         0.73       528.478
         0.73       528.478
        0.735        529.11
        0.735        529.11
         0.74       529.746
         0.74       529.746
        0.745       530.392
        0.745       530.392
         0.75       531.044
         0.75       531.044
        0.755       531.701
        0.755       531.701
         0.76       532.365
         0.76       532.365
        0.765       533.038
        0.765       533.038
         0.77       533.716
         0.77       533.716
        0.775       534.399
        0.775       534.399
         0.78       535.089
         0.78       535.089
        0.785       535.786
        0.785       535.786
         0.79       536.489
         0.79       536.489
        0.795       537.197
        0.795       537.197
          0.8       537.911
          0.8       537.911
        0.805       538.631
        0.805       538.631
         0.81       539.356
         0.81       539.356
        0.815       540.088
        0.815       540.088
         0.82       540.824
         0.82       540.824
        0.825       541.566
        0.825       541.566
         0.83       542.312
         0.83       542.312
        0.835       543.064
        0.835       543.064
         0.84        543.82
         0.84        543.82
        0.845       544.582
        0.845       544.582
         0.85       545.348
         0.85       545.348
        0.855       546.118
        0.855       546.118
         0.86       546.892
         0.86       546.892
        0.865       547.671
        0.865       547.671
         0.87       548.454
         0.87       548.454
        0.875       549.241
        0.875       549.241
         0.88       550.032
         0.88       550.032
        0.885       550.826
        0.885       550.826
         0.89       551.624
         0.89       551.624
        0.895       552.425
        0.895       552.425
          0.9        553.23
          0.9        553.23
        0.905       554.038
        0.905       554.038
         0.91       554.849
         0.91       554.849
        0.915       555.663
        0.915       555.663
         0.92       556.479
         0.92       556.479
        0.925       557.299
        0.925       557.299
         0.93        558.12
         0.93        558.12
        0.935       558.944
        0.935       558.944
         0.94       559.771
         0.94       559.771
        0.945       560.599
        0.945       560.599
         0.95       561.429
         0.95       561.429
        0.955       562.261
        0.955       562.261
         0.96       563.095
         0.96       563.095
        0.965       563.931
        0.965       563.931
         0.97       564.768
         0.97       564.768
        0.975       565.606
        0.975       565.606
         0.98       566.445
         0.98       566.445
        0.985       567.286
        0.985       567.286
         0.99       568.127
         0.99       568.127
        0.995        568.97
        0.995        568.97
            1       569.813
            1       569.813
        1.005       570.701
        1.005       570.701
         1.01       571.549
         1.01       571.549
        1.015       572.397
        1.015       572.397
         1.02       573.245
         1.02       573.245
        1.025       574.094
        1.025       574.094
         1.03       574.943
         1.03       574.943
        1.035       575.792
        1.035       575.792
         1.04       576.641
         1.04       576.641
        1.045       577.491
        1.045       577.491
         1.05       578.341
         1.05       578.341
        1.055       579.191
        1.055       579.191
         1.06       580.042
         1.06       580.042
        1.065       580.891
        1.065       580.891
         1.07       581.742
         1.07       581.742
        1.075       582.592
        1.075       582.592
         1.08       583.442
         1.08       583.442
        1.085       584.292
        1.085       584.292
         1.09       585.141
         1.09       585.141
        1.095       585.991
        1.095       585.991
          1.1       586.839
          1.1       586.839
        1.105       587.689
        1.105       587.689
         1.11       588.538
         1.11       588.538
        1.115       589.384
        1.115       589.384
         1.12       590.234
         1.12       590.234
        1.125       591.081
        1.125       591.081
         1.13       591.927
         1.13       591.927
        1.135       592.773
        1.135       592.773
         1.14       593.621
         1.14       593.621
        1.145       594.466
        1.145       594.466
         1.15       595.311
         1.15       595.311
        1.155       596.157
        1.155       596.157
         1.16       597.001
         1.16       597.001
        1.165       597.845
        1.165       597.845
         1.17       598.689
         1.17       598.689
        1.175       599.533
        1.175       599.533
         1.18       600.376
         1.18       600.376
        1.185        601.22
        1.185        601.22
         1.19       602.064
         1.19       602.064
        1.195       602.906
        1.195       602.906
          1.2        603.75
          1.2        603.75
        1.205       604.594
        1.205       604.594
         1.21       605.437
         1.21       605.437
        1.215       606.281
        1.215       606.281
         1.22       607.125
         1.22       607.125
        1.225       607.969
        1.225       607.969
         1.23       608.814
         1.23       608.814
        1.235       609.659
        1.235       609.659
         1.24       610.505
         1.24       610.505
        1.245       611.352
        1.245       611.352
         1.25       612.199
         1.25       612.199
        1.255       613.048
        1.255       613.048
         1.26       613.898
         1.26       613.898
        1.265       614.748
        1.265       614.748
         1.27       615.599
         1.27       615.599
        1.275       616.453
        1.275       616.453
         1.28       617.306
         1.28       617.306
        1.285       618.164
        1.285       618.164
         1.29       619.021
         1.29       619.021
        1.295       619.882
        1.295       619.882
          1.3       620.744
          1.3       620.744
        1.305       621.607
        1.305       621.607
         1.31       622.475
         1.31       622.475
        1.315       623.342
        1.315       623.342
         1.32       624.214
         1.32       624.214
        1.325       625.088
        1.325       625.088
         1.33       625.964
         1.33       625.964
        1.335       626.845
        1.335       626.845
         1.34       627.728
         1.34       627.728
        1.345       628.614
        1.345       628.614
         1.35       629.503
         1.35       629.503
        1.355       630.397
        1.355       630.397
         1.36       631.294
         1.36       631.294
        1.365       632.194
        1.365       632.194
         1.37       633.099
         1.37       633.099
        1.375       634.008
        1.375       634.008
         1.38       634.922
         1.38       634.922
        1.385        635.84
        1.385        635.84
         1.39       636.762
         1.39       636.762
        1.395        637.69
        1.395        637.69
          1.4       638.622
          1.4       638.622
        1.405       639.559
        1.405       639.559
         1.41       640.502
         1.41       640.502
        1.415        641.45
        1.415        641.45
         1.42       642.403
         1.42       642.403
        1.425       643.362
         1.43       644.331
        1.435       645.295
         1.44       646.276
        1.445        647.26
         1.45        648.25
        1.455       649.247
         1.46       650.249
        1.465       651.259
         1.47       652.276
        1.475         653.3
         1.48       654.331
        1.485       655.369
         1.49       656.414
        1.495       657.467
          1.5       658.528
        1.505       659.596
         1.51       660.672
        1.515       661.756
         1.52       662.847
        1.525       663.947
         1.53       665.055
        1.535       666.172
         1.54       667.297
        1.545       668.429
         1.55        669.57
        1.555        670.72
         1.56       671.878
        1.565       673.044
         1.57       674.219
        1.575       675.403
         1.58       676.595
        1.585       677.796
         1.59       679.005
        1.595       680.223
          1.6       681.449
        1.605       682.683
         1.61       683.926
        1.615       685.178
         1.62       686.438
        1.625       687.706
         1.63       688.982
        1.635       690.266
         1.64       691.558
        1.645       692.859
         1.65       694.166
        1.655       695.482
         1.66       696.806
        1.665       698.136
         1.67       699.475
        1.675       700.821
         1.68       702.174
        1.685       703.534
         1.69       704.901
        1.695       706.275
          1.7       707.656
        1.705       709.044
         1.71       710.437
        1.715       711.837
         1.72       713.243
        1.725       714.655
         1.73       716.073
        1.735       717.497
         1.74       718.926
        1.745        720.36
         1.75       721.798
        1.755       723.243
         1.76       724.692
        1.765       726.146
         1.77       727.602
        1.775       729.064
         1.78       730.531
        1.785       732.001
         1.79       733.473
        1.795        734.95
          1.8        736.43
        1.805       737.913
         1.81       739.398
        1.815       740.887
         1.82       742.378
        1.825       743.872
         1.83       745.366
        1.835       746.862
         1.84       748.362
        1.845       749.863
         1.85       751.363
        1.855       752.865
         1.86       754.369
        1.865       755.874
         1.87       757.378
        1.875       758.883
         1.88       760.389
        1.885       761.894
         1.89       763.398
        1.895       764.903
          1.9       766.409
        1.905       767.913
         1.91       769.415
        1.915       770.916
         1.92       772.418
        1.925        773.92
         1.93       775.418
        1.935       776.914
         1.94        778.41
        1.945       779.905
         1.95       781.397
        1.955       782.886
         1.96       784.375
        1.965       785.862
         1.97       787.345
        1.975       788.824
         1.98       790.305
        1.985       791.784
         1.99       793.257
        1.995       794.726
            2       796.196
        2.005       797.528
         2.01       798.981
        2.015       800.432
         2.02       801.883
        2.025       803.332
         2.03       804.775
        2.035       806.212
         2.04       807.648
        2.045       809.083
         2.05       810.509
        2.055       811.929
         2.06       813.347
        2.065       814.765
         2.07       816.176
        2.075       817.577
         2.08       818.977
        2.085       820.377
         2.09        821.77
        2.095       823.154
          2.1       824.536
        2.105       825.918
         2.11       827.292
        2.115       828.656
         2.12       830.019
        2.125       831.384
         2.13        832.74
         2.13        832.74
        2.135       834.072
        2.135       834.072
         2.14       835.441
         2.14       835.441
        2.145        836.77
        2.145        836.77
         2.15       838.105
         2.15       838.105
        2.155       839.432
        2.155       839.432
         2.16       840.762
         2.16       840.762
        2.165       842.083
        2.165       842.083
         2.17       843.394
         2.17       843.394
        2.175       844.702
        2.175       844.702
         2.18       846.012
         2.18       846.012
        2.185       847.314
        2.185       847.314
         2.19       848.603
         2.19       848.603
        2.195       849.889
        2.195       849.889
          2.2       851.177
          2.2       851.177
        2.205       852.458
        2.205       852.458
         2.21       853.728
         2.21       853.728
        2.215       854.993
        2.215       854.993
         2.22       856.258
         2.22       856.258
        2.225       857.515
        2.225       857.515
         2.23       858.762
         2.23       858.762
        2.235       860.004
        2.235       860.004
         2.24       861.246
         2.24       861.246
        2.245        862.48
        2.245        862.48
         2.25       863.703
         2.25       863.703
        2.255        864.92
        2.255        864.92
         2.26       866.136
         2.26       866.136
        2.265       867.347
        2.265       867.347
         2.27       868.546
         2.27       868.546
        2.275       869.738
        2.275       869.738
         2.28       870.927
         2.28       870.927
        2.285       872.109
        2.285       872.109
         2.29       873.281
         2.29       873.281
        2.295       874.447
        2.295       874.447
          2.3       875.609
          2.3       875.609
        2.305       876.764
        2.305       876.764
         2.31       877.908
         2.31       877.908
        2.315       879.043
        2.315       879.043
         2.32       880.175
         2.32       880.175
        2.325       881.301
        2.325       881.301
         2.33       882.415
         2.33       882.415
        2.335        883.52
        2.335        883.52
         2.34        884.62
        2.345       885.726
         2.35        886.78
        2.355       887.865
         2.36       888.929
        2.365        889.99
         2.37       891.041
        2.375       892.076
         2.38       893.102
        2.385       894.121
         2.39       895.137
        2.395       896.139
          2.4       897.128
        2.405       898.109
         2.41       899.084
        2.415       900.045
         2.42       900.995
        2.425       901.937
         2.43       902.872
        2.435       903.791
         2.44       904.696
        2.445       905.597
         2.45       906.492
        2.455       907.371
         2.46       908.232
        2.465       909.086
         2.47       909.935
        2.475       910.771
         2.48        911.59
        2.485       912.399
         2.49       913.202
        2.495       913.991
          2.5       914.762
        2.505       915.527
         2.51       916.288
        2.515       917.031
         2.52       917.753
        2.525       918.469
         2.53       919.183
        2.535       919.884
         2.54       920.562
        2.545       921.229
         2.55       921.894
        2.555       922.548
         2.56       923.181
        2.565       923.803
         2.57       924.425
        2.575       925.033
         2.58       925.616
        2.585       926.192
         2.59       926.773
        2.595       927.341
          2.6        927.88
        2.605       928.409
         2.61       928.943
        2.615        929.47
         2.62       929.972
        2.625        930.46
         2.63       930.952
        2.635       931.437
         2.64       931.897
        2.645       932.345
         2.65       932.802
        2.655       933.254
         2.66       933.674
        2.665       934.078
         2.67       934.499
        2.675       934.921
         2.68       935.311
        2.685        935.68
         2.69       936.063
        2.695       936.451
          2.7       936.813
        2.705       937.155
         2.71        937.51
        2.715       937.871
         2.72       938.202
        2.725       938.511
         2.73       938.842
        2.735       939.188
         2.74       939.498
        2.745       939.777
         2.75       940.079
        2.755       940.406
         2.76       940.703
        2.765       940.965
         2.77       941.246
        2.775       941.553
         2.78       941.831
        2.785       942.077
         2.79       942.346
        2.795       942.645
          2.8       942.912
        2.805       943.136
         2.81       943.386
        2.815       943.683
         2.82       943.952
        2.825       944.165
         2.83       944.397
         2.83       944.397
        2.835       944.713
         2.84       944.893
         2.84       944.893
        2.845        945.18
         2.85       945.403
         2.85       945.403
        2.855       945.704
         2.86        945.86
         2.86        945.86
        2.865       946.129
         2.87       946.404
         2.87       946.404
        2.875       946.656
         2.88        946.85
        2.885        947.13
         2.89       947.321
         2.89       947.321
        2.895       947.632
          2.9       947.831
        2.905       948.103
         2.91       948.307
        2.915       948.586
         2.92       948.841
        2.925       949.045
         2.93       949.278
        2.935       949.575
         2.94       949.846
         2.94       949.846
        2.945       950.037
         2.95       950.264
         2.95       950.264
        2.955       950.559
         2.96       950.789
         2.96       950.789
        2.965       951.048
         2.97        951.31
        2.975       951.551
         2.98        951.84
        2.985       952.061
         2.99       952.293
        2.995       952.592
            3       952.889
        3.005       953.101
         3.01       953.309
        3.015       953.617
         3.02       953.939
         3.02       953.939
        3.025       954.162
        3.025       954.162
         3.03        954.38
        3.035       954.693
        3.035       954.693
         3.04       954.962
         3.04       954.962
        3.045       955.163
        3.045       955.163
         3.05       955.484
        3.055       955.767
         3.06       956.031
        3.065       956.282
        3.065       956.282
         3.07       956.456
         3.07       956.456
        3.075       956.897
        3.075       956.897
         3.08       957.106
        3.085       957.311
        3.085       957.311
         3.09       957.618
         3.09       957.618
        3.095        957.91
        3.095        957.91
          3.1       958.147
        3.105       958.401
         3.11        958.67
        3.115       958.963
         3.12       959.255
        3.125       959.475
         3.13       959.698
        3.135       959.997
        3.135       959.997
         3.14       960.355
         3.14       960.355
        3.145       960.505
         3.15       960.797
        3.155       961.029
        3.155       961.029
         3.16       961.305
         3.16       961.305
        3.165       961.566
         3.17       961.878
        3.175       962.053
         3.18       962.375
        3.185       962.579
         3.19       962.796
        3.195       963.092
          3.2       963.402
        3.205       963.623
         3.21       963.793
        3.215        964.03
        3.215        964.03
         3.22       964.317
         3.22       964.317
        3.225       964.563
        3.225       964.563
         3.23       964.797
        3.235       965.013
        3.235       965.013
         3.24       965.312
         3.24       965.312
        3.245       965.407
        3.245       965.407
         3.25       965.707
        3.255       965.949
         3.26         966.2
        3.265       966.408
        3.265       966.408
         3.27       966.503
         3.27       966.503
        3.275       966.819
         3.28       967.054
        3.285       967.238
        3.285       967.238
         3.29        967.43
        3.295       967.687
          3.3       967.879
        3.305       968.052
         3.31        968.22
        3.315       968.468
        3.315       968.468
         3.32       968.744
         3.32       968.744
        3.325       968.808
        3.325       968.808
         3.33       969.011
         3.33       969.011
        3.335       969.253
         3.34        969.48
        3.345       969.586
         3.35       969.799
        3.355       969.988
         3.36       970.191
        3.365       970.334
         3.37       970.462
        3.375       970.672
         3.38       970.905
        3.385       971.043
        3.385       971.043
         3.39       971.092
         3.39       971.092
        3.395       971.362
          3.4       971.514
        3.405       971.682
        3.405       971.682
         3.41       971.862
         3.41       971.862
        3.415       971.953
         3.42       972.091
        3.425       972.295
         3.43       972.401
        3.435       972.571
         3.44       972.755
        3.445       972.882
        3.445       972.882