# Probe 0 (0.05 0 0.1)
#       Probe             0
#        Time
            0             (0 0 0)
            0             (0 0 0)
        0.005             (0.000441603 -4.12859e-08 0.000190099)
        0.005             (0.000441603 -4.12859e-08 0.000190099)
         0.01             (0.000888124 1.23514e-08 0.000365643)
         0.01             (0.000888124 1.23514e-08 0.000365643)
        0.015             (0.00134024 -2.68989e-08 0.000535374)
        0.015             (0.00134024 -2.68989e-08 0.000535374)
         0.02             (0.00179416 -2.7708e-08 0.000699459)
         0.02             (0.00179416 -2.7708e-08 0.000699459)
        0.025             (0.00225081 -3.97334e-08 0.000855811)
        0.025             (0.00225081 -3.97334e-08 0.000855811)
         0.03             (0.00270957 -1.16928e-07 0.00100567)
         0.03             (0.00270957 -1.16928e-07 0.00100567)
        0.035             (0.00317048 -8.77402e-08 0.0011479)
        0.035             (0.00317048 -8.77402e-08 0.0011479)
         0.04             (0.00363353 -8.31029e-08 0.00128401)
         0.04             (0.00363353 -8.31029e-08 0.00128401)
        0.045             (0.00409875 -1.44863e-07 0.00141363)
        0.045             (0.00409875 -1.44863e-07 0.00141363)
         0.05             (0.00456603 -1.37845e-07 0.00153722)
         0.05             (0.00456603 -1.37845e-07 0.00153722)
        0.055             (0.00503525 -1.62979e-07 0.00165445)
        0.055             (0.00503525 -1.62979e-07 0.00165445)
         0.06             (0.00550632 1.98453e-07 0.00176736)
         0.06             (0.00550632 1.98453e-07 0.00176736)
        0.065             (0.0059791 2.53864e-07 0.00187414)
        0.065             (0.0059791 2.53864e-07 0.00187414)
         0.07             (0.00645346 2.3542e-07 0.00197612)
         0.07             (0.00645346 2.3542e-07 0.00197612)
        0.075             (0.00692934 2.91103e-07 0.00207302)
        0.075             (0.00692934 2.91103e-07 0.00207302)
         0.08             (0.0074066 3.05884e-07 0.00216611)
         0.08             (0.0074066 3.05884e-07 0.00216611)
        0.085             (0.00788523 3.65153e-07 0.00225385)
        0.085             (0.00788523 3.65153e-07 0.00225385)
         0.09             (0.0083651 4.07052e-07 0.00233793)
         0.09             (0.0083651 4.07052e-07 0.00233793)
         0.09             (0.0083651 4.07052e-07 0.00233793)
        0.095             (0.00884615 4.38567e-07 0.00241775)
        0.095             (0.00884615 4.38567e-07 0.00241775)
        0.095             (0.00884615 4.38567e-07 0.00241775)
          0.1             (0.00932829 4.9586e-07 0.00249403)
          0.1             (0.00932829 4.9586e-07 0.00249403)
          0.1             (0.00932829 4.9586e-07 0.00249403)
        0.105             (0.00981147 5.23925e-07 0.00256614)
        0.105             (0.00981147 5.23925e-07 0.00256614)
        0.105             (0.00981147 5.23925e-07 0.00256614)
         0.11             (0.0102957 5.75352e-07 0.00263457)
         0.11             (0.0102957 5.75352e-07 0.00263457)
        0.115             (0.0107808 6.07593e-07 0.00269976)
        0.115             (0.0107808 6.07593e-07 0.00269976)
         0.12             (0.0112669 6.54904e-07 0.00276154)
         0.12             (0.0112669 6.54904e-07 0.00276154)
        0.125             (0.0117538 6.97878e-07 0.00282002)
        0.125             (0.0117538 6.97878e-07 0.00282002)
         0.13             (0.0122416 7.45215e-07 0.00287519)
         0.13             (0.0122416 7.45215e-07 0.00287519)
        0.135             (0.0127301 7.9701e-07 0.00292748)
        0.135             (0.0127301 7.9701e-07 0.00292748)
         0.14             (0.0132194 8.40001e-07 0.00297696)
         0.14             (0.0132194 8.40001e-07 0.00297696)
        0.145             (0.0137094 8.73221e-07 0.00302346)
        0.145             (0.0137094 8.73221e-07 0.00302346)
         0.15             (0.0142001 9.32919e-07 0.00306727)
         0.15             (0.0142001 9.32919e-07 0.00306727)
        0.155             (0.0146914 9.66944e-07 0.00310831)
        0.155             (0.0146914 9.66944e-07 0.00310831)
         0.16             (0.0151834 9.96584e-07 0.00314689)
         0.16             (0.0151834 9.96584e-07 0.00314689)
        0.165             (0.0156759 1.03491e-06 0.00318313)
        0.165             (0.0156759 1.03491e-06 0.00318313)
         0.17             (0.0161691 1.08632e-06 0.00321684)
         0.17             (0.0161691 1.08632e-06 0.00321684)
        0.175             (0.0166627 1.12526e-06 0.00324814)
        0.175             (0.0166627 1.12526e-06 0.00324814)
         0.18             (0.0171569 1.1339e-06 0.00327747)
         0.18             (0.0171569 1.1339e-06 0.00327747)
        0.185             (0.0176516 1.19879e-06 0.00330439)
        0.185             (0.0176516 1.19879e-06 0.00330439)
         0.19             (0.0181467 1.20668e-06 0.00332947)
         0.19             (0.0181467 1.20668e-06 0.00332947)
        0.195             (0.0186423 1.26632e-06 0.0033523)
        0.195             (0.0186423 1.26632e-06 0.0033523)
        0.195             (0.0186423 1.26632e-06 0.0033523)
          0.2             (0.0191383 1.29236e-06 0.00337344)
          0.2             (0.0191383 1.29236e-06 0.00337344)
        0.205             (0.0196347 1.32044e-06 0.00339248)
        0.205             (0.0196347 1.32044e-06 0.00339248)
        0.205             (0.0196347 1.32044e-06 0.00339248)
         0.21             (0.0201314 1.35801e-06 0.00340996)
         0.21             (0.0201314 1.35801e-06 0.00340996)
         0.21             (0.0201314 1.35801e-06 0.00340996)
        0.215             (0.0206286 1.38737e-06 0.00342542)
        0.215             (0.0206286 1.38737e-06 0.00342542)
         0.22             (0.021126 1.42292e-06 0.00343952)
         0.22             (0.021126 1.42292e-06 0.00343952)
         0.22             (0.021126 1.42292e-06 0.00343952)
        0.225             (0.0216238 1.44637e-06 0.00345177)
        0.225             (0.0216238 1.44637e-06 0.00345177)
         0.23             (0.0221219 1.46934e-06 0.0034627)
         0.23             (0.0221219 1.46934e-06 0.0034627)
        0.235             (0.0226202 1.47533e-06 0.00347224)
        0.235             (0.0226202 1.47533e-06 0.00347224)
         0.24             (0.0231187 1.51508e-06 0.00348085)
         0.24             (0.0231187 1.51508e-06 0.00348085)
        0.245             (0.0236177 1.51546e-06 0.00348738)
        0.245             (0.0236177 1.51546e-06 0.00348738)
         0.25             (0.0241169 1.52839e-06 0.00349298)
         0.25             (0.0241169 1.52839e-06 0.00349298)
        0.255             (0.0246162 1.53177e-06 0.00349744)
        0.255             (0.0246162 1.53177e-06 0.00349744)
         0.26             (0.025116 1.55382e-06 0.00350022)
         0.26             (0.025116 1.55382e-06 0.00350022)
        0.265             (0.0256159 1.53652e-06 0.00350185)
        0.265             (0.0256159 1.53652e-06 0.00350185)
         0.27             (0.0261159 1.56741e-06 0.00350283)
         0.27             (0.0261159 1.56741e-06 0.00350283)
        0.275             (0.0266162 1.57151e-06 0.00350213)
        0.275             (0.0266162 1.57151e-06 0.00350213)
         0.28             (0.0271166 1.56639e-06 0.00350061)
         0.28             (0.0271166 1.56639e-06 0.00350061)
        0.285             (0.0276171 1.58037e-06 0.00349845)
        0.285             (0.0276171 1.58037e-06 0.00349845)
         0.29             (0.0281177 1.63407e-06 0.00349539)
         0.29             (0.0281177 1.63407e-06 0.00349539)
        0.295             (0.0286184 1.57511e-06 0.00349132)
        0.295             (0.0286184 1.57511e-06 0.00349132)
        0.295             (0.0286184 1.57511e-06 0.00349132)
          0.3             (0.0291193 1.50343e-06 0.00348645)
          0.3             (0.0291193 1.50343e-06 0.00348645)
        0.305             (0.0296203 1.54407e-06 0.003481)
        0.305             (0.0296203 1.54407e-06 0.003481)
         0.31             (0.0301214 1.55162e-06 0.00347457)
         0.31             (0.0301214 1.55162e-06 0.00347457)
         0.31             (0.0301214 1.55162e-06 0.00347457)
        0.315             (0.0306227 1.54782e-06 0.00346733)
        0.315             (0.0306227 1.54782e-06 0.00346733)
         0.32             (0.031124 1.53536e-06 0.00345936)
         0.32             (0.031124 1.53536e-06 0.00345936)
        0.325             (0.0316252 1.54369e-06 0.00345113)
        0.325             (0.0316252 1.54369e-06 0.00345113)
         0.33             (0.0321266 1.50169e-06 0.00344219)
         0.33             (0.0321266 1.50169e-06 0.00344219)
        0.335             (0.0326281 1.53308e-06 0.00343254)
        0.335             (0.0326281 1.53308e-06 0.00343254)
         0.34             (0.0331295 1.493e-06 0.00342246)
         0.34             (0.0331295 1.493e-06 0.00342246)
        0.345             (0.0336307 1.45934e-06 0.00341247)
        0.345             (0.0336307 1.45934e-06 0.00341247)
         0.35             (0.0341321 1.45705e-06 0.00340169)
         0.35             (0.0341321 1.45705e-06 0.00340169)
        0.355             (0.0346335 1.40073e-06 0.00339041)
        0.355             (0.0346335 1.40073e-06 0.00339041)
         0.36             (0.035135 1.32666e-06 0.00337905)
         0.36             (0.035135 1.32666e-06 0.00337905)
        0.365             (0.0356363 1.31494e-06 0.00336744)
        0.365             (0.0356363 1.31494e-06 0.00336744)
         0.37             (0.0361376 1.28141e-06 0.00335557)
         0.37             (0.0361376 1.28141e-06 0.00335557)
        0.375             (0.0366388 1.16268e-06 0.00334345)
        0.375             (0.0366388 1.16268e-06 0.00334345)
         0.38             (0.03714 1.05379e-06 0.00333124)
         0.38             (0.03714 1.05379e-06 0.00333124)
        0.385             (0.0376413 1.11643e-06 0.00331846)
        0.385             (0.0376413 1.11643e-06 0.00331846)
         0.39             (0.0381424 1.02564e-06 0.00330578)
         0.39             (0.0381424 1.02564e-06 0.00330578)
        0.395             (0.0386436 9.98721e-07 0.00329243)
        0.395             (0.0386436 9.98721e-07 0.00329243)
          0.4             (0.0391448 9.3341e-07 0.00327898)
          0.4             (0.0391448 9.3341e-07 0.00327898)
        0.405             (0.0396458 8.96115e-07 0.00326522)
        0.405             (0.0396458 8.96115e-07 0.00326522)
         0.41             (0.0401467 8.94132e-07 0.00325145)
         0.41             (0.0401467 8.94132e-07 0.00325145)
        0.415             (0.0406474 8.55778e-07 0.0032374)
        0.415             (0.0406474 8.55778e-07 0.0032374)
         0.42             (0.0411479 8.19674e-07 0.00322328)
         0.42             (0.0411479 8.19674e-07 0.00322328)
        0.425             (0.0416482 7.4241e-07 0.00320949)
        0.425             (0.0416482 7.4241e-07 0.00320949)
         0.43             (0.0421484 6.79711e-07 0.0031956)
         0.43             (0.0421484 6.79711e-07 0.0031956)
        0.435             (0.0426495 5.23146e-07 0.00318094)
        0.435             (0.0426495 5.23146e-07 0.00318094)
         0.44             (0.0431509 5.15063e-07 0.00316621)
         0.44             (0.0431509 5.15063e-07 0.00316621)
        0.445             (0.0436525 5.18565e-07 0.00315139)
        0.445             (0.0436525 5.18565e-07 0.00315139)
         0.45             (0.0441541 4.91237e-07 0.00313665)
         0.45             (0.0441541 4.91237e-07 0.00313665)
        0.455             (0.0446558 4.27275e-07 0.00312187)
        0.455             (0.0446558 4.27275e-07 0.00312187)
         0.46             (0.0451573 3.83905e-07 0.00310739)
         0.46             (0.0451573 3.83905e-07 0.00310739)
        0.465             (0.0456588 3.44691e-07 0.0030933)
        0.465             (0.0456588 3.44691e-07 0.0030933)
         0.47             (0.0461602 2.90254e-07 0.0030792)
         0.47             (0.0461602 2.90254e-07 0.0030792)
        0.475             (0.0466616 2.18596e-07 0.00306546)
        0.475             (0.0466616 2.18596e-07 0.00306546)
         0.48             (0.0471629 1.57912e-07 0.00305178)
         0.48             (0.0471629 1.57912e-07 0.00305178)
        0.485             (0.0476643 9.01596e-08 0.00303818)
        0.485             (0.0476643 9.01596e-08 0.00303818)
         0.49             (0.0481657 1.83995e-08 0.00302468)
         0.49             (0.0481657 1.83995e-08 0.00302468)
        0.495             (0.0486671 -3.87883e-08 0.00301119)
        0.495             (0.0486671 -3.87883e-08 0.00301119)
          0.5             (0.0491684 -9.76411e-08 0.00299784)
          0.5             (0.0491684 -9.76411e-08 0.00299784)
        0.505             (0.0496697 -1.53794e-07 0.00298455)
        0.505             (0.0496697 -1.53794e-07 0.00298455)
         0.51             (0.0501709 -2.22369e-07 0.00297144)
         0.51             (0.0501709 -2.22369e-07 0.00297144)
        0.515             (0.0506722 -2.8936e-07 0.00295836)
        0.515             (0.0506722 -2.8936e-07 0.00295836)
         0.52             (0.0511734 -3.42642e-07 0.00294545)
         0.52             (0.0511734 -3.42642e-07 0.00294545)
        0.525             (0.0516746 -4.08227e-07 0.00293257)
        0.525             (0.0516746 -4.08227e-07 0.00293257)
         0.53             (0.0521757 -4.77749e-07 0.0029199)
         0.53             (0.0521757 -4.77749e-07 0.0029199)
        0.535             (0.0526768 -5.23223e-07 0.00290733)
        0.535             (0.0526768 -5.23223e-07 0.00290733)
         0.54             (0.0531777 -5.82972e-07 0.00289497)
         0.54             (0.0531777 -5.82972e-07 0.00289497)
        0.545             (0.0536787 -6.27669e-07 0.00288271)
        0.545             (0.0536787 -6.27669e-07 0.00288271)
         0.55             (0.0541796 -6.89388e-07 0.00287073)
         0.55             (0.0541796 -6.89388e-07 0.00287073)
        0.555             (0.0546804 -7.24793e-07 0.00285881)
        0.555             (0.0546804 -7.24793e-07 0.00285881)
         0.56             (0.0551811 -7.80157e-07 0.00284721)
         0.56             (0.0551811 -7.80157e-07 0.00284721)
        0.565             (0.0556819 -8.2995e-07 0.00283567)
        0.565             (0.0556819 -8.2995e-07 0.00283567)
         0.57             (0.0561824 -8.73656e-07 0.00282447)
         0.57             (0.0561824 -8.73656e-07 0.00282447)
        0.575             (0.056683 -9.06545e-07 0.00281311)
        0.575             (0.056683 -9.06545e-07 0.00281311)
         0.58             (0.0571835 -9.64463e-07 0.00280247)
         0.58             (0.0571835 -9.64463e-07 0.00280247)
        0.585             (0.057684 -9.94993e-07 0.00279166)
        0.585             (0.057684 -9.94993e-07 0.00279166)
         0.59             (0.0581845 -1.02814e-06 0.00278102)
         0.59             (0.0581845 -1.02814e-06 0.00278102)
        0.595             (0.058685 -1.06158e-06 0.0027706)
        0.595             (0.058685 -1.06158e-06 0.0027706)
          0.6             (0.0591853 -1.06986e-06 0.00276045)
          0.6             (0.0591853 -1.06986e-06 0.00276045)
        0.605             (0.0596855 -1.11822e-06 0.00275061)
        0.605             (0.0596855 -1.11822e-06 0.00275061)
         0.61             (0.0601856 -1.14562e-06 0.00274097)
         0.61             (0.0601856 -1.14562e-06 0.00274097)
        0.615             (0.0606857 -1.16978e-06 0.00273149)
        0.615             (0.0606857 -1.16978e-06 0.00273149)
         0.62             (0.0611858 -1.20322e-06 0.00272218)
         0.62             (0.0611858 -1.20322e-06 0.00272218)
        0.625             (0.0616859 -1.23025e-06 0.00271309)
        0.625             (0.0616859 -1.23025e-06 0.00271309)
         0.63             (0.0621859 -1.25959e-06 0.00270423)
         0.63             (0.0621859 -1.25959e-06 0.00270423)
        0.635             (0.0626858 -1.27442e-06 0.00269536)
        0.635             (0.0626858 -1.27442e-06 0.00269536)
         0.64             (0.0631857 -1.29409e-06 0.00268703)
         0.64             (0.0631857 -1.29409e-06 0.00268703)
        0.645             (0.0636856 -1.30243e-06 0.00267877)
        0.645             (0.0636856 -1.30243e-06 0.00267877)
         0.65             (0.0641854 -1.32223e-06 0.00267071)
         0.65             (0.0641854 -1.32223e-06 0.00267071)
        0.655             (0.0646852 -1.3236e-06 0.00266265)
        0.655             (0.0646852 -1.3236e-06 0.00266265)
         0.66             (0.0651849 -1.33454e-06 0.00265503)
         0.66             (0.0651849 -1.33454e-06 0.00265503)
        0.665             (0.0656845 -1.34394e-06 0.00264765)
        0.665             (0.0656845 -1.34394e-06 0.00264765)
         0.67             (0.0661841 1.34154e-06 0.00264046)
         0.67             (0.0661841 1.34154e-06 0.00264046)
        0.675             (0.0666837 1.35396e-06 0.00263328)
        0.675             (0.0666837 1.35396e-06 0.00263328)
         0.68             (0.0671833 1.34898e-06 0.00262649)
         0.68             (0.0671833 1.34898e-06 0.00262649)
        0.685             (0.0676827 1.34587e-06 0.00261991)
        0.685             (0.0676827 1.34587e-06 0.00261991)
         0.69             (0.0681822 1.34481e-06 0.00261347)
         0.69             (0.0681822 1.34481e-06 0.00261347)
        0.695             (0.0686816 1.34058e-06 0.00260706)
        0.695             (0.0686816 1.34058e-06 0.00260706)
          0.7             (0.069181 1.33233e-06 0.00260112)
          0.7             (0.069181 1.33233e-06 0.00260112)
        0.705             (0.0696803 1.32076e-06 0.00259514)
        0.705             (0.0696803 1.32076e-06 0.00259514)
         0.71             (0.0701797 1.31471e-06 0.00258937)
         0.71             (0.0701797 1.31471e-06 0.00258937)
        0.715             (0.0706789 1.29677e-06 0.00258379)
        0.715             (0.0706789 1.29677e-06 0.00258379)
         0.72             (0.0711782 1.28109e-06 0.00257853)
         0.72             (0.0711782 1.28109e-06 0.00257853)
        0.725             (0.0716774 1.2628e-06 0.00257325)
        0.725             (0.0716774 1.2628e-06 0.00257325)
         0.73             (0.0721765 1.25146e-06 0.00256816)
         0.73             (0.0721765 1.25146e-06 0.00256816)
        0.735             (0.0726757 1.23334e-06 0.00256322)
        0.735             (0.0726757 1.23334e-06 0.00256322)
         0.74             (0.0731748 1.2132e-06 0.00255861)
         0.74             (0.0731748 1.2132e-06 0.00255861)
        0.745             (0.0736738 1.1816e-06 0.002554)
        0.745             (0.0736738 1.1816e-06 0.002554)
         0.75             (0.0741729 1.16557e-06 0.00254943)
         0.75             (0.0741729 1.16557e-06 0.00254943)
        0.755             (0.0746719 1.12973e-06 0.00254508)
        0.755             (0.0746719 1.12973e-06 0.00254508)
         0.76             (0.0751708 1.10528e-06 0.00254098)
         0.76             (0.0751708 1.10528e-06 0.00254098)
        0.765             (0.0756698 1.08057e-06 0.00253691)
        0.765             (0.0756698 1.08057e-06 0.00253691)
         0.77             (0.0761687 1.05147e-06 0.00253287)
         0.77             (0.0761687 1.05147e-06 0.00253287)
        0.775             (0.0766675 1.01497e-06 0.00252912)
        0.775             (0.0766675 1.01497e-06 0.00252912)
         0.78             (0.0771663 9.77592e-07 0.00252539)
         0.78             (0.0771663 9.77592e-07 0.00252539)
        0.785             (0.0776651 9.49463e-07 0.00252179)
        0.785             (0.0776651 9.49463e-07 0.00252179)
         0.79             (0.0781639 9.20364e-07 0.00251817)
         0.79             (0.0781639 9.20364e-07 0.00251817)
        0.795             (0.0786627 8.78557e-07 0.00251492)
        0.795             (0.0786627 8.78557e-07 0.00251492)
          0.8             (0.0791614 8.40408e-07 0.00251161)
          0.8             (0.0791614 8.40408e-07 0.00251161)
        0.805             (0.0796601 8.00174e-07 0.00250846)
        0.805             (0.0796601 8.00174e-07 0.00250846)
         0.81             (0.0801587 7.61246e-07 0.0025054)
         0.81             (0.0801587 7.61246e-07 0.0025054)
        0.815             (0.0806574 7.23637e-07 0.00250239)
        0.815             (0.0806574 7.23637e-07 0.00250239)
         0.82             (0.081156 6.812e-07 0.00249947)
         0.82             (0.081156 6.812e-07 0.00249947)
        0.825             (0.0816546 6.45039e-07 0.0024966)
        0.825             (0.0816546 6.45039e-07 0.0024966)
         0.83             (0.0821532 5.97573e-07 0.00249393)
         0.83             (0.0821532 5.97573e-07 0.00249393)
        0.835             (0.0826517 5.58257e-07 0.00249123)
        0.835             (0.0826517 5.58257e-07 0.00249123)
         0.84             (0.0831502 5.14585e-07 0.0024887)
         0.84             (0.0831502 5.14585e-07 0.0024887)
        0.845             (0.0836488 4.69528e-07 0.0024862)
        0.845             (0.0836488 4.69528e-07 0.0024862)
         0.85             (0.0841473 4.34741e-07 0.00248373)
         0.85             (0.0841473 4.34741e-07 0.00248373)
        0.855             (0.0846457 3.86906e-07 0.00248139)
        0.855             (0.0846457 3.86906e-07 0.00248139)
         0.86             (0.0851442 3.45329e-07 0.00247895)
         0.86             (0.0851442 3.45329e-07 0.00247895)
        0.865             (0.0856427 2.98821e-07 0.00247664)
        0.865             (0.0856427 2.98821e-07 0.00247664)
         0.87             (0.0861413 2.61101e-07 0.00247431)
         0.87             (0.0861413 2.61101e-07 0.00247431)
        0.875             (0.0866399 2.26261e-07 0.00247189)
        0.875             (0.0866399 2.26261e-07 0.00247189)
         0.88             (0.0871387 1.69851e-07 0.00246944)
         0.88             (0.0871387 1.69851e-07 0.00246944)
        0.885             (0.0876376 1.35904e-07 0.00246694)
        0.885             (0.0876376 1.35904e-07 0.00246694)
         0.89             (0.0881365 8.70621e-08 0.00246445)
         0.89             (0.0881365 8.70621e-08 0.00246445)
        0.895             (0.0886355 5.72537e-08 0.00246193)
        0.895             (0.0886355 5.72537e-08 0.00246193)
          0.9             (0.0891345 7.61134e-09 0.00245944)
          0.9             (0.0891345 7.61134e-09 0.00245944)
        0.905             (0.0896335 -3.60595e-08 0.00245698)
        0.905             (0.0896335 -3.60595e-08 0.00245698)
         0.91             (0.0901326 -8.09914e-08 0.00245455)
         0.91             (0.0901326 -8.09914e-08 0.00245455)
        0.915             (0.0906317 -1.21402e-07 0.00245209)
        0.915             (0.0906317 -1.21402e-07 0.00245209)
         0.92             (0.0911309 -1.59513e-07 0.0024497)
         0.92             (0.0911309 -1.59513e-07 0.0024497)
        0.925             (0.09163 -2.06111e-07 0.0024473)
        0.925             (0.09163 -2.06111e-07 0.0024473)
         0.93             (0.0921292 -2.36561e-07 0.00244494)
         0.93             (0.0921292 -2.36561e-07 0.00244494)
        0.935             (0.0926284 -2.77199e-07 0.00244259)
        0.935             (0.0926284 -2.77199e-07 0.00244259)
         0.94             (0.0931277 -3.15648e-07 0.00244023)
         0.94             (0.0931277 -3.15648e-07 0.00244023)
        0.945             (0.0936269 -3.50373e-07 0.00243793)
        0.945             (0.0936269 -3.50373e-07 0.00243793)
         0.95             (0.0941261 -3.88383e-07 0.00243557)
         0.95             (0.0941261 -3.88383e-07 0.00243557)
        0.955             (0.0946254 -4.29958e-07 0.00243333)
        0.955             (0.0946254 -4.29958e-07 0.00243333)
         0.96             (0.0951247 -4.54112e-07 0.00243092)
         0.96             (0.0951247 -4.54112e-07 0.00243092)
        0.965             (0.095624 -4.98158e-07 0.00242861)
        0.965             (0.095624 -4.98158e-07 0.00242861)
         0.97             (0.0961233 -5.32272e-07 0.00242633)
         0.97             (0.0961233 -5.32272e-07 0.00242633)
        0.975             (0.0966227 -5.67633e-07 0.00242396)
        0.975             (0.0966227 -5.67633e-07 0.00242396)
         0.98             (0.097122 -5.95202e-07 0.00242174)
         0.98             (0.097122 -5.95202e-07 0.00242174)
        0.985             (0.0976213 5.5283e-07 0.00241949)
        0.985             (0.0976213 5.5283e-07 0.00241949)
         0.99             (0.0981206 5.89305e-07 0.00241732)
         0.99             (0.0981206 5.89305e-07 0.00241732)
        0.995             (0.0986199 6.09057e-07 0.00241519)
        0.995             (0.0986199 6.09057e-07 0.00241519)
            1             (0.0991191 6.37808e-07 0.00241312)
            1             (0.0991191 6.37808e-07 0.00241312)
        1.005             (0.100058 6.74042e-07 0.0025826)
        1.005             (0.100058 6.74042e-07 0.0025826)
         1.01             (0.101013 7.22259e-07 0.0027504)
         1.01             (0.101013 7.22259e-07 0.0027504)
        1.015             (0.101973 7.56733e-07 0.00291234)
        1.015             (0.101973 7.56733e-07 0.00291234)
         1.02             (0.102937 8.05172e-07 0.00306728)
         1.02             (0.102937 8.05172e-07 0.00306728)
        1.025             (0.103903 8.49277e-07 0.00321465)
        1.025             (0.103903 8.49277e-07 0.00321465)
         1.03             (0.104872 8.9544e-07 0.00335433)
         1.03             (0.104872 8.9544e-07 0.00335433)
        1.035             (0.105843 9.37927e-07 0.00348629)
        1.035             (0.105843 9.37927e-07 0.00348629)
         1.04             (0.106817 9.91038e-07 0.00361088)
         1.04             (0.106817 9.91038e-07 0.00361088)
        1.045             (0.107791 1.03263e-06 0.00372827)
        1.045             (0.107791 1.03263e-06 0.00372827)
         1.05             (0.108768 1.08714e-06 0.00383888)
         1.05             (0.108768 1.08714e-06 0.00383888)
        1.055             (0.109746 1.1043e-06 0.0039431)
        1.055             (0.109746 1.1043e-06 0.0039431)
         1.06             (0.110726 1.15551e-06 0.00404127)
         1.06             (0.110726 1.15551e-06 0.00404127)
        1.065             (0.111708 1.25215e-06 0.00413257)
        1.065             (0.111708 1.25215e-06 0.00413257)
         1.07             (0.11269 1.26571e-06 0.0042203)
         1.07             (0.11269 1.26571e-06 0.0042203)
        1.075             (0.113674 1.29706e-06 0.00430224)
        1.075             (0.113674 1.29706e-06 0.00430224)
         1.08             (0.114659 1.33831e-06 0.00437903)
         1.08             (0.114659 1.33831e-06 0.00437903)
        1.085             (0.115645 1.35162e-06 0.00445183)
        1.085             (0.115645 1.35162e-06 0.00445183)
         1.09             (0.116632 1.40366e-06 0.00452)
         1.09             (0.116632 1.40366e-06 0.00452)
        1.095             (0.11762 1.42513e-06 0.00458407)
        1.095             (0.11762 1.42513e-06 0.00458407)
          1.1             (0.118609 1.50991e-06 0.00464247)
          1.1             (0.118609 1.50991e-06 0.00464247)
        1.105             (0.119599 1.52309e-06 0.00469918)
        1.105             (0.119599 1.52309e-06 0.00469918)
         1.11             (0.12059 1.60285e-06 0.00475025)
         1.11             (0.12059 1.60285e-06 0.00475025)
        1.115             (0.121581 1.59328e-06 0.00479941)
        1.115             (0.121581 1.59328e-06 0.00479941)
         1.12             (0.122574 1.63376e-06 0.00484472)
         1.12             (0.122574 1.63376e-06 0.00484472)
        1.125             (0.123566 1.64392e-06 0.00488732)
        1.125             (0.123566 1.64392e-06 0.00488732)
         1.13             (0.124559 1.65588e-06 0.00492663)
         1.13             (0.124559 1.65588e-06 0.00492663)
        1.135             (0.125554 1.76605e-06 0.00496123)
        1.135             (0.125554 1.76605e-06 0.00496123)
         1.14             (0.126548 1.75286e-06 0.00499548)
         1.14             (0.126548 1.75286e-06 0.00499548)
        1.145             (0.127544 1.74475e-06 0.00502663)
        1.145             (0.127544 1.74475e-06 0.00502663)
         1.15             (0.128539 1.78172e-06 0.00505487)
         1.15             (0.128539 1.78172e-06 0.00505487)
        1.155             (0.129535 1.78863e-06 0.00508069)
        1.155             (0.129535 1.78863e-06 0.00508069)
         1.16             (0.130533 1.86752e-06 0.00510271)
         1.16             (0.130533 1.86752e-06 0.00510271)
        1.165             (0.13153 1.8475e-06 0.00512446)
        1.165             (0.13153 1.8475e-06 0.00512446)
         1.17             (0.132527 1.84235e-06 0.0051439)
         1.17             (0.132527 1.84235e-06 0.0051439)
        1.175             (0.133526 1.86029e-06 0.00516065)
        1.175             (0.133526 1.86029e-06 0.00516065)
         1.18             (0.134525 1.93911e-06 0.00517428)
         1.18             (0.134525 1.93911e-06 0.00517428)
        1.185             (0.135524 1.90039e-06 0.00518803)
        1.185             (0.135524 1.90039e-06 0.00518803)
         1.19             (0.136523 1.87747e-06 0.00520005)
         1.19             (0.136523 1.87747e-06 0.00520005)
        1.195             (0.137523 1.89671e-06 0.00520936)
        1.195             (0.137523 1.89671e-06 0.00520936)
          1.2             (0.138523 1.95316e-06 0.00521611)
          1.2             (0.138523 1.95316e-06 0.00521611)