# Moment      
# CofR        : (1.500000e+00 1.187560e-10 2.250000e-01)
#
# Time        	(total_x total_y total_z)	(pressure_x pressure_y pressure_z)	(viscous_x viscous_y viscous_z)
0             	(1.575141e-08 -9.616195e-06 1.190076e-11)	(1.575141e-08 -9.616195e-06 1.190076e-11)	(0.000000e+00 0.000000e+00 0.000000e+00)
0             	(1.575141e-08 -9.616195e-06 1.190076e-11)	(1.575141e-08 -9.616195e-06 1.190076e-11)	(0.000000e+00 0.000000e+00 0.000000e+00)
0.0025        	(7.865131e-07 -2.663326e-05 3.240215e-06)	(7.871927e-07 -2.677498e-05 2.957455e-06)	(-6.796130e-10 1.417215e-07 2.827598e-07)
0.0025        	(7.865131e-07 -2.663326e-05 3.240215e-06)	(7.871927e-07 -2.677498e-05 2.957455e-06)	(-6.796130e-10 1.417215e-07 2.827598e-07)
0.005         	(-4.988369e-06 -2.604488e-05 -5.577466e-07)	(-4.982453e-06 -2.536791e-05 -1.719155e-07)	(-5.915793e-09 -6.769673e-07 -3.858311e-07)
0.005         	(-4.988369e-06 -2.604488e-05 -5.577466e-07)	(-4.982453e-06 -2.536791e-05 -1.719155e-07)	(-5.915793e-09 -6.769673e-07 -3.858311e-07)
0.0075        	(3.981031e-06 -2.436876e-05 3.386666e-07)	(4.144666e-06 -2.685548e-05 1.448512e-07)	(-1.636354e-07 2.486720e-06 1.938155e-07)
0.0075        	(3.981031e-06 -2.436876e-05 3.386666e-07)	(4.144666e-06 -2.685548e-05 1.448512e-07)	(-1.636354e-07 2.486720e-06 1.938155e-07)
0.01          	(8.407468e-06 -2.506219e-05 2.113933e-08)	(9.097126e-06 -2.724725e-05 -7.388837e-08)	(-6.896586e-07 2.185064e-06 9.502771e-08)
0.01          	(8.407468e-06 -2.506219e-05 2.113933e-08)	(9.097126e-06 -2.724725e-05 -7.388837e-08)	(-6.896586e-07 2.185064e-06 9.502771e-08)
0.0125        	(-8.350253e-06 -1.357160e-05 4.160630e-08)	(-8.501671e-06 -1.681029e-05 -1.366452e-09)	(1.514175e-07 3.238689e-06 4.297276e-08)
0.0125        	(-8.350253e-06 -1.357160e-05 4.160630e-08)	(-8.501671e-06 -1.681029e-05 -1.366452e-09)	(1.514175e-07 3.238689e-06 4.297276e-08)
0.015         	(4.882722e-06 -1.788512e-05 -1.160786e-07)	(5.173895e-06 -2.104920e-05 -3.198749e-08)	(-2.911735e-07 3.164079e-06 -8.409108e-08)
0.015         	(4.882722e-06 -1.788512e-05 -1.160786e-07)	(5.173895e-06 -2.104920e-05 -3.198749e-08)	(-2.911735e-07 3.164079e-06 -8.409108e-08)
0.0175        	(-6.881921e-06 -1.105806e-05 -1.110087e-08)	(-7.030226e-06 -1.536759e-05 4.727254e-08)	(1.483051e-07 4.309532e-06 -5.837342e-08)
0.0175        	(-6.881921e-06 -1.105806e-05 -1.110087e-08)	(-7.030226e-06 -1.536759e-05 4.727254e-08)	(1.483051e-07 4.309532e-06 -5.837342e-08)
0.02          	(7.644280e-06 -2.253525e-05 -1.801762e-08)	(7.532982e-06 -2.713727e-05 -4.401933e-08)	(1.112984e-07 4.602018e-06 2.600171e-08)
0.02          	(7.644280e-06 -2.253525e-05 -1.801762e-08)	(7.532982e-06 -2.713727e-05 -4.401933e-08)	(1.112984e-07 4.602018e-06 2.600171e-08)
0.0225        	(-9.501335e-06 -1.359391e-05 8.034054e-08)	(-9.514792e-06 -1.896849e-05 1.970227e-08)	(1.345730e-08 5.374578e-06 6.063827e-08)
0.0225        	(-9.501335e-06 -1.359391e-05 8.034054e-08)	(-9.514792e-06 -1.896849e-05 1.970227e-08)	(1.345730e-08 5.374578e-06 6.063827e-08)
0.025         	(1.108968e-05 -2.086868e-05 -4.634427e-08)	(1.108143e-05 -2.664800e-05 -2.319777e-08)	(8.254723e-09 5.779318e-06 -2.314650e-08)
0.025         	(1.108968e-05 -2.086868e-05 -4.634427e-08)	(1.108143e-05 -2.664800e-05 -2.319777e-08)	(8.254723e-09 5.779318e-06 -2.314650e-08)
0.0275        	(-1.297521e-05 -1.188339e-05 5.779499e-08)	(-1.296336e-05 -1.829301e-05 1.315267e-08)	(-1.185233e-08 6.409622e-06 4.464232e-08)
0.0275        	(-1.297521e-05 -1.188339e-05 5.779499e-08)	(-1.296336e-05 -1.829301e-05 1.315267e-08)	(-1.185233e-08 6.409622e-06 4.464232e-08)
0.03          	(1.583273e-05 -2.204798e-05 -1.531109e-08)	(1.582220e-05 -2.911874e-05 -1.891249e-08)	(1.053000e-08 7.070757e-06 3.601400e-09)
0.03          	(1.583273e-05 -2.204798e-05 -1.531109e-08)	(1.582220e-05 -2.911874e-05 -1.891249e-08)	(1.053000e-08 7.070757e-06 3.601400e-09)
0.0325        	(-1.604316e-05 -1.428267e-05 6.377683e-09)	(-1.603302e-05 -2.196309e-05 3.366372e-09)	(-1.014301e-08 7.680424e-06 3.011311e-09)
0.0325        	(-1.604316e-05 -1.428267e-05 6.377683e-09)	(-1.603302e-05 -2.196309e-05 3.366372e-09)	(-1.014301e-08 7.680424e-06 3.011311e-09)
0.035         	(1.685855e-05 -2.212787e-05 5.743236e-08)	(1.685791e-05 -3.039920e-05 1.778770e-08)	(6.420640e-10 8.271327e-06 3.964467e-08)
0.035         	(1.685855e-05 -2.212787e-05 5.743236e-08)	(1.685791e-05 -3.039920e-05 1.778770e-08)	(6.420640e-10 8.271327e-06 3.964467e-08)
0.0375        	(-1.910117e-05 -1.504090e-05 -6.762209e-08)	(-1.909420e-05 -2.390541e-05 -3.067245e-08)	(-6.975004e-09 8.864514e-06 -3.694964e-08)
0.0375        	(-1.910117e-05 -1.504090e-05 -6.762209e-08)	(-1.909420e-05 -2.390541e-05 -3.067245e-08)	(-6.975004e-09 8.864514e-06 -3.694964e-08)
0.04          	(1.904451e-05 -1.936587e-05 1.017969e-07)	(1.905289e-05 -2.877025e-05 3.688516e-08)	(-8.382755e-09 9.404381e-06 6.491175e-08)
0.04          	(1.904451e-05 -1.936587e-05 1.017969e-07)	(1.905289e-05 -2.877025e-05 3.688516e-08)	(-8.382755e-09 9.404381e-06 6.491175e-08)
0.0425        	(-2.166316e-05 -1.073591e-05 -7.442517e-08)	(-2.164657e-05 -2.073970e-05 -3.609901e-08)	(-1.659003e-08 1.000379e-05 -3.832617e-08)
0.0425        	(-2.166316e-05 -1.073591e-05 -7.442517e-08)	(-2.164657e-05 -2.073970e-05 -3.609901e-08)	(-1.659003e-08 1.000379e-05 -3.832617e-08)
0.045         	(2.733782e-05 -1.400092e-05 1.149168e-07)	(2.733528e-05 -2.461104e-05 3.965707e-08)	(2.541447e-09 1.061011e-05 7.525971e-08)
0.045         	(2.733782e-05 -1.400092e-05 1.149168e-07)	(2.733528e-05 -2.461104e-05 3.965707e-08)	(2.541447e-09 1.061011e-05 7.525971e-08)
0.0475        	(-2.048569e-05 -7.410564e-06 -5.116260e-08)	(-2.047646e-05 -1.859524e-05 -3.110955e-08)	(-9.227615e-09 1.118467e-05 -2.005305e-08)
0.0475        	(-2.048569e-05 -7.410564e-06 -5.116260e-08)	(-2.047646e-05 -1.859524e-05 -3.110955e-08)	(-9.227615e-09 1.118467e-05 -2.005305e-08)
0.05          	(2.521297e-05 -9.329671e-06 -1.446450e-08)	(2.521361e-05 -2.108596e-05 -2.360335e-09)	(-6.444795e-10 1.175629e-05 -1.210417e-08)
0.05          	(2.521297e-05 -9.329671e-06 -1.446450e-08)	(2.521361e-05 -2.108596e-05 -2.360335e-09)	(-6.444795e-10 1.175629e-05 -1.210417e-08)
0.0525        	(-2.485574e-05 -1.675552e-05 4.008928e-08)	(-2.483648e-05 -2.912728e-05 1.318725e-08)	(-1.926091e-08 1.237176e-05 2.690202e-08)
0.0525        	(-2.485574e-05 -1.675552e-05 4.008928e-08)	(-2.483648e-05 -2.912728e-05 1.318725e-08)	(-1.926091e-08 1.237176e-05 2.690202e-08)
0.055         	(2.458585e-05 -1.735250e-05 -3.776784e-08)	(2.459265e-05 -3.033038e-05 -1.690350e-08)	(-6.797274e-09 1.297788e-05 -2.086434e-08)
0.055         	(2.458585e-05 -1.735250e-05 -3.776784e-08)	(2.459265e-05 -3.033038e-05 -1.690350e-08)	(-6.797274e-09 1.297788e-05 -2.086434e-08)
0.0575        	(-2.740376e-05 -1.555819e-05 5.850276e-08)	(-2.737687e-05 -2.912030e-05 2.126424e-08)	(-2.689360e-08 1.356211e-05 3.723852e-08)
0.0575        	(-2.740376e-05 -1.555819e-05 5.850276e-08)	(-2.737687e-05 -2.912030e-05 2.126424e-08)	(-2.689360e-08 1.356211e-05 3.723852e-08)
0.06          	(2.640027e-05 -1.158053e-05 -6.315317e-08)	(2.641135e-05 -2.573275e-05 -2.995603e-08)	(-1.108350e-08 1.415222e-05 -3.319714e-08)
0.06          	(2.640027e-05 -1.158053e-05 -6.315317e-08)	(2.641135e-05 -2.573275e-05 -2.995603e-08)	(-1.108350e-08 1.415222e-05 -3.319714e-08)
0.0625        	(-2.921672e-05 -1.263500e-05 8.110347e-08)	(-2.920691e-05 -2.739934e-05 3.327831e-08)	(-9.811504e-09 1.476434e-05 4.782515e-08)
0.0625        	(-2.921672e-05 -1.263500e-05 8.110347e-08)	(-2.920691e-05 -2.739934e-05 3.327831e-08)	(-9.811504e-09 1.476434e-05 4.782515e-08)
0.065         	(3.098053e-05 -1.910815e-05 -4.872324e-08)	(3.097800e-05 -3.446425e-05 -2.422672e-08)	(2.535402e-09 1.535610e-05 -2.449652e-08)
0.065         	(3.098053e-05 -1.910815e-05 -4.872324e-08)	(3.097800e-05 -3.446425e-05 -2.422672e-08)	(2.535402e-09 1.535610e-05 -2.449652e-08)
0.0675        	(-3.831275e-05 -5.721991e-06 2.689898e-08)	(-3.828312e-05 -2.168457e-05 8.991146e-09)	(-2.962611e-08 1.596258e-05 1.790783e-08)
0.0675        	(-3.831275e-05 -5.721991e-06 2.689898e-08)	(-3.828312e-05 -2.168457e-05 8.991146e-09)	(-2.962611e-08 1.596258e-05 1.790783e-08)
0.07          	(3.495710e-05 -1.888131e-05 2.487383e-08)	(3.496411e-05 -3.551603e-05 5.064593e-09)	(-7.003264e-09 1.663472e-05 1.980924e-08)
0.07          	(3.495710e-05 -1.888131e-05 2.487383e-08)	(3.496411e-05 -3.551603e-05 5.064593e-09)	(-7.003264e-09 1.663472e-05 1.980924e-08)
0.0725        	(-3.105435e-05 -1.286701e-06 -6.938428e-08)	(-3.102711e-05 -1.853684e-05 -2.449175e-08)	(-2.723700e-08 1.725014e-05 -4.489253e-08)
0.0725        	(-3.105435e-05 -1.286701e-06 -6.938428e-08)	(-3.102711e-05 -1.853684e-05 -2.449175e-08)	(-2.723700e-08 1.725014e-05 -4.489253e-08)
0.075         	(3.338110e-05 -1.594032e-05 1.280381e-07)	(3.339720e-05 -3.377413e-05 4.706359e-08)	(-1.610070e-08 1.783381e-05 8.097449e-08)
0.075         	(3.338110e-05 -1.594032e-05 1.280381e-07)	(3.339720e-05 -3.377413e-05 4.706359e-08)	(-1.610070e-08 1.783381e-05 8.097449e-08)
0.0775        	(-3.354415e-05 2.701291e-06 -1.844356e-07)	(-3.353983e-05 -1.581298e-05 -6.539962e-08)	(-4.321017e-09 1.851427e-05 -1.190360e-07)
0.0775        	(-3.354415e-05 2.701291e-06 -1.844356e-07)	(-3.353983e-05 -1.581298e-05 -6.539962e-08)	(-4.321017e-09 1.851427e-05 -1.190360e-07)
0.08          	(3.168690e-05 -1.734910e-05 1.600481e-07)	(3.168721e-05 -3.642093e-05 6.655683e-08)	(-3.071299e-10 1.907183e-05 9.349129e-08)
0.08          	(3.168690e-05 -1.734910e-05 1.600481e-07)	(3.168721e-05 -3.642093e-05 6.655683e-08)	(-3.071299e-10 1.907183e-05 9.349129e-08)
0.0825        	(-3.383446e-05 3.031935e-06 -9.079553e-08)	(-3.379169e-05 -1.699783e-05 -4.681775e-08)	(-4.277145e-08 2.002977e-05 -4.397779e-08)
0.0825        	(-3.383446e-05 3.031935e-06 -9.079553e-08)	(-3.379169e-05 -1.699783e-05 -4.681775e-08)	(-4.277145e-08 2.002977e-05 -4.397779e-08)
0.085         	(3.045442e-05 -1.832135e-05 9.063731e-11)	(3.046110e-05 -3.871353e-05 1.176835e-08)	(-6.683818e-09 2.039218e-05 -1.167771e-08)
0.085         	(3.045442e-05 -1.832135e-05 9.063731e-11)	(3.046110e-05 -3.871353e-05 1.176835e-08)	(-6.683818e-09 2.039218e-05 -1.167771e-08)
0.0875        	(-3.072189e-05 -9.221066e-07 8.959746e-08)	(-3.077281e-05 -2.198789e-05 3.923200e-08)	(5.091792e-08 2.106578e-05 5.036546e-08)
0.0875        	(-3.072189e-05 -9.221066e-07 8.959746e-08)	(-3.077281e-05 -2.198789e-05 3.923200e-08)	(5.091792e-08 2.106578e-05 5.036546e-08)
0.09          	(2.189767e-05 -2.151358e-05 -2.603958e-07)	(2.192345e-05 -4.321215e-05 -1.038865e-07)	(-2.578761e-08 2.169857e-05 -1.565093e-07)
0.09          	(2.189767e-05 -2.151358e-05 -2.603958e-07)	(2.192345e-05 -4.321215e-05 -1.038865e-07)	(-2.578761e-08 2.169857e-05 -1.565093e-07)
0.0925        	(-1.755025e-05 -6.053782e-06 4.120735e-07)	(-1.748396e-05 -2.853232e-05 1.502890e-07)	(-6.629216e-08 2.247854e-05 2.617846e-07)
0.0925        	(-1.755025e-05 -6.053782e-06 4.120735e-07)	(-1.748396e-05 -2.853232e-05 1.502890e-07)	(-6.629216e-08 2.247854e-05 2.617846e-07)
0.095         	(1.426853e-05 -1.653145e-05 -4.526425e-07)	(1.425759e-05 -3.955497e-05 -1.762563e-07)	(1.094353e-08 2.302352e-05 -2.763862e-07)
0.095         	(1.426853e-05 -1.653145e-05 -4.526425e-07)	(1.425759e-05 -3.955497e-05 -1.762563e-07)	(1.094353e-08 2.302352e-05 -2.763862e-07)
0.0975        	(-6.067011e-06 1.517865e-06 3.569533e-07)	(-6.142739e-06 -2.204897e-05 1.725698e-07)	(7.572819e-08 2.356684e-05 1.843835e-07)
0.0975        	(-6.067011e-06 1.517865e-06 3.569533e-07)	(-6.142739e-06 -2.204897e-05 1.725698e-07)	(7.572819e-08 2.356684e-05 1.843835e-07)
0.1           	(9.085712e-06 -1.032351e-05 -2.005336e-07)	(9.086541e-06 -3.476202e-05 -1.173744e-07)	(-8.285344e-10 2.443852e-05 -8.315917e-08)
0.1           	(9.085712e-06 -1.032351e-05 -2.005336e-07)	(9.086541e-06 -3.476202e-05 -1.173744e-07)	(-8.285344e-10 2.443852e-05 -8.315917e-08)
0.1           	(9.085712e-06 -1.032351e-05 -2.005336e-07)	(9.086541e-06 -3.476202e-05 -1.173744e-07)	(-8.285344e-10 2.443852e-05 -8.315917e-08)
0.1025        	(5.169957e-07 -5.158207e-07 1.515362e-07)	(5.359017e-07 -2.513894e-05 7.428939e-08)	(-1.890599e-08 2.462312e-05 7.724677e-08)
0.1025        	(5.169957e-07 -5.158207e-07 1.515362e-07)	(5.359017e-07 -2.513894e-05 7.428939e-08)	(-1.890599e-08 2.462312e-05 7.724677e-08)
0.1025        	(5.169957e-07 -5.158207e-07 1.515362e-07)	(5.359017e-07 -2.513894e-05 7.428939e-08)	(-1.890599e-08 2.462312e-05 7.724677e-08)
0.105         	(5.759051e-06 -9.878257e-06 -1.490523e-07)	(5.825545e-06 -3.553111e-05 -6.023652e-08)	(-6.649367e-08 2.565285e-05 -8.881577e-08)
0.105         	(5.759051e-06 -9.878257e-06 -1.490523e-07)	(5.825545e-06 -3.553111e-05 -6.023652e-08)	(-6.649367e-08 2.565285e-05 -8.881577e-08)
0.1075        	(-8.126194e-06 4.914410e-07 -7.486540e-08)	(-8.189932e-06 -2.558365e-05 3.638631e-09)	(6.373828e-08 2.607509e-05 -7.850404e-08)
0.1075        	(-8.126194e-06 4.914410e-07 -7.486540e-08)	(-8.189932e-06 -2.558365e-05 3.638631e-09)	(6.373828e-08 2.607509e-05 -7.850404e-08)
0.11          	(5.914917e-06 -1.496207e-05 2.594688e-07)	(5.949950e-06 -4.207962e-05 7.926205e-08)	(-3.503237e-08 2.711755e-05 1.802067e-07)
0.11          	(5.914917e-06 -1.496207e-05 2.594688e-07)	(5.949950e-06 -4.207962e-05 7.926205e-08)	(-3.503237e-08 2.711755e-05 1.802067e-07)
0.1125        	(-9.907677e-06 -1.193883e-06 -2.335773e-07)	(-9.929291e-06 -2.858765e-05 -9.540513e-08)	(2.161313e-08 2.739377e-05 -1.381721e-07)
0.1125        	(-9.907677e-06 -1.193883e-06 -2.335773e-07)	(-9.929291e-06 -2.858765e-05 -9.540513e-08)	(2.161313e-08 2.739377e-05 -1.381721e-07)
0.115         	(1.130875e-05 -1.686513e-05 8.992850e-08)	(1.134990e-05 -4.507643e-05 5.734647e-08)	(-4.114447e-08 2.821130e-05 3.258203e-08)
0.115         	(1.130875e-05 -1.686513e-05 8.992850e-08)	(1.134990e-05 -4.507643e-05 5.734647e-08)	(-4.114447e-08 2.821130e-05 3.258203e-08)
0.1175        	(-2.185195e-05 -2.402776e-06 4.456036e-08)	(-2.183074e-05 -3.130794e-05 -2.583982e-09)	(-2.120622e-08 2.890517e-05 4.714434e-08)
0.1175        	(-2.185195e-05 -2.402776e-06 4.456036e-08)	(-2.183074e-05 -3.130794e-05 -2.583982e-09)	(-2.120622e-08 2.890517e-05 4.714434e-08)
0.12          	(1.931320e-05 -1.670765e-05 -2.728490e-07)	(1.927209e-05 -4.656360e-05 -1.012881e-07)	(4.111157e-08 2.985596e-05 -1.715609e-07)
0.12          	(1.931320e-05 -1.670765e-05 -2.728490e-07)	(1.927209e-05 -4.656360e-05 -1.012881e-07)	(4.111157e-08 2.985596e-05 -1.715609e-07)
0.1225        	(-2.206843e-05 -2.399762e-06 3.427595e-07)	(-2.198936e-05 -3.266223e-05 1.508123e-07)	(-7.907701e-08 3.026246e-05 1.919472e-07)
0.1225        	(-2.206843e-05 -2.399762e-06 3.427595e-07)	(-2.198936e-05 -3.266223e-05 1.508123e-07)	(-7.907701e-08 3.026246e-05 1.919472e-07)
0.125         	(2.807262e-05 -1.527959e-05 -3.867289e-07)	(2.815183e-05 -4.620051e-05 -1.606820e-07)	(-7.921665e-08 3.092092e-05 -2.260470e-07)
0.125         	(2.807262e-05 -1.527959e-05 -3.867289e-07)	(2.815183e-05 -4.620051e-05 -1.606820e-07)	(-7.921665e-08 3.092092e-05 -2.260470e-07)
0.1275        	(-3.593076e-05 4.372007e-06 4.136241e-07)	(-3.589277e-05 -2.699255e-05 1.659880e-07)	(-3.799271e-08 3.136455e-05 2.476362e-07)
0.1275        	(-3.593076e-05 4.372007e-06 4.136241e-07)	(-3.589277e-05 -2.699255e-05 1.659880e-07)	(-3.799271e-08 3.136455e-05 2.476362e-07)
0.13          	(3.939801e-05 -1.525583e-05 -2.308623e-07)	(3.941855e-05 -4.750490e-05 -1.295812e-07)	(-2.053957e-08 3.224907e-05 -1.012811e-07)
0.13          	(3.939801e-05 -1.525583e-05 -2.308623e-07)	(3.941855e-05 -4.750490e-05 -1.295812e-07)	(-2.053957e-08 3.224907e-05 -1.012811e-07)
0.1325        	(-4.472185e-05 1.693141e-05 7.593065e-09)	(-4.472540e-05 -1.637552e-05 4.301798e-08)	(3.554915e-09 3.330693e-05 -3.542491e-08)
0.1325        	(-4.472185e-05 1.693141e-05 7.593065e-09)	(-4.472540e-05 -1.637552e-05 4.301798e-08)	(3.554915e-09 3.330693e-05 -3.542491e-08)
0.135         	(5.172287e-05 -1.724480e-05 2.458400e-07)	(5.180496e-05 -5.074269e-05 8.407196e-08)	(-8.209407e-08 3.349789e-05 1.617680e-07)
0.135         	(5.172287e-05 -1.724480e-05 2.458400e-07)	(5.180496e-05 -5.074269e-05 8.407196e-08)	(-8.209407e-08 3.349789e-05 1.617680e-07)
0.1375        	(-6.128307e-05 2.457015e-05 -4.068828e-07)	(-6.122634e-05 -9.677054e-06 -1.753990e-07)	(-5.672805e-08 3.424721e-05 -2.314837e-07)
0.1375        	(-6.128307e-05 2.457015e-05 -4.068828e-07)	(-6.122634e-05 -9.677054e-06 -1.753990e-07)	(-5.672805e-08 3.424721e-05 -2.314837e-07)
0.14          	(5.404921e-05 -2.266199e-05 4.980725e-07)	(5.407902e-05 -5.781282e-05 1.914430e-07)	(-2.980775e-08 3.515084e-05 3.066296e-07)
0.14          	(5.404921e-05 -2.266199e-05 4.980725e-07)	(5.407902e-05 -5.781282e-05 1.914430e-07)	(-2.980775e-08 3.515084e-05 3.066296e-07)
0.1425        	(-6.430602e-05 1.947987e-05 -4.333205e-07)	(-6.420148e-05 -1.652392e-05 -1.807031e-07)	(-1.045356e-07 3.600379e-05 -2.526173e-07)
0.1425        	(-6.430602e-05 1.947987e-05 -4.333205e-07)	(-6.420148e-05 -1.652392e-05 -1.807031e-07)	(-1.045356e-07 3.600379e-05 -2.526173e-07)
0.145         	(5.432345e-05 -2.816398e-05 2.707898e-07)	(5.442059e-05 -6.466592e-05 1.256859e-07)	(-9.714243e-08 3.650194e-05 1.451039e-07)
0.145         	(5.432345e-05 -2.816398e-05 2.707898e-07)	(5.442059e-05 -6.466592e-05 1.256859e-07)	(-9.714243e-08 3.650194e-05 1.451039e-07)
0.1475        	(-5.779518e-05 1.433411e-05 -8.356407e-08)	(-5.773552e-05 -2.295347e-05 -5.642711e-08)	(-5.966281e-08 3.728758e-05 -2.713696e-08)
0.1475        	(-5.779518e-05 1.433411e-05 -8.356407e-08)	(-5.773552e-05 -2.295347e-05 -5.642711e-08)	(-5.966281e-08 3.728758e-05 -2.713696e-08)
0.15          	(5.719784e-05 -2.412973e-05 -3.099336e-09)	(5.727046e-05 -6.220546e-05 1.963902e-09)	(-7.262328e-08 3.807573e-05 -5.063237e-09)
0.15          	(5.719784e-05 -2.412973e-05 -3.099336e-09)	(5.727046e-05 -6.220546e-05 1.963902e-09)	(-7.262328e-08 3.807573e-05 -5.063237e-09)
0.1525        	(-4.678182e-05 1.209656e-05 9.826629e-09)	(-4.672338e-05 -2.683475e-05 3.581409e-09)	(-5.843557e-08 3.893131e-05 6.245220e-09)
0.1525        	(-4.678182e-05 1.209656e-05 9.826629e-09)	(-4.672338e-05 -2.683475e-05 3.581409e-09)	(-5.843557e-08 3.893131e-05 6.245220e-09)
0.155         	(4.753806e-05 -1.812327e-05 8.409162e-09)	(4.757467e-05 -5.790504e-05 -7.943507e-10)	(-3.660565e-08 3.978178e-05 9.203513e-09)
0.155         	(4.753806e-05 -1.812327e-05 8.409162e-09)	(4.757467e-05 -5.790504e-05 -7.943507e-10)	(-3.660565e-08 3.978178e-05 9.203513e-09)
0.1575        	(-3.317682e-05 1.511537e-05 -1.711148e-08)	(-3.315190e-05 -2.537666e-05 -5.908274e-09)	(-2.491967e-08 4.049203e-05 -1.120320e-08)
0.1575        	(-3.317682e-05 1.511537e-05 -1.711148e-08)	(-3.315190e-05 -2.537666e-05 -5.908274e-09)	(-2.491967e-08 4.049203e-05 -1.120320e-08)
0.16          	(3.247180e-05 -8.178351e-06 9.273687e-09)	(3.250067e-05 -4.948292e-05 5.434613e-09)	(-2.887265e-08 4.130457e-05 3.839075e-09)
0.16          	(3.247180e-05 -8.178351e-06 9.273687e-09)	(3.250067e-05 -4.948292e-05 5.434613e-09)	(-2.887265e-08 4.130457e-05 3.839075e-09)
0.1625        	(-2.252034e-05 1.000313e-05 5.664770e-09)	(-2.250759e-05 -3.212236e-05 4.466606e-09)	(-1.275702e-08 4.212549e-05 1.198164e-09)
0.1625        	(-2.252034e-05 1.000313e-05 5.664770e-09)	(-2.250759e-05 -3.212236e-05 4.466606e-09)	(-1.275702e-08 4.212549e-05 1.198164e-09)
0.165         	(2.158845e-05 -1.189371e-06 -1.558364e-08)	(2.162587e-05 -4.426502e-05 -1.460473e-08)	(-3.742325e-08 4.307565e-05 -9.789076e-10)
0.165         	(2.158845e-05 -1.189371e-06 -1.558364e-08)	(2.162587e-05 -4.426502e-05 -1.460473e-08)	(-3.742325e-08 4.307565e-05 -9.789076e-10)
0.1675        	(-3.048448e-05 3.732998e-06 3.011508e-08)	(-3.049332e-05 -4.018420e-05 1.665333e-08)	(8.834072e-09 4.391720e-05 1.346175e-08)
0.1675        	(-3.048448e-05 3.732998e-06 3.011508e-08)	(-3.049332e-05 -4.018420e-05 1.665333e-08)	(8.834072e-09 4.391720e-05 1.346175e-08)
0.17          	(4.546505e-05 -1.877712e-05 1.578590e-08)	(4.544040e-05 -6.348924e-05 7.918721e-09)	(2.465677e-08 4.471211e-05 7.867182e-09)
0.17          	(4.546505e-05 -1.877712e-05 1.578590e-08)	(4.544040e-05 -6.348924e-05 7.918721e-09)	(2.465677e-08 4.471211e-05 7.867182e-09)
0.1725        	(-4.941542e-05 -4.171124e-06 -5.300570e-09)	(-4.943148e-05 -4.978955e-05 -8.220736e-09)	(1.605876e-08 4.561843e-05 2.920166e-09)
0.1725        	(-4.941542e-05 -4.171124e-06 -5.300570e-09)	(-4.943148e-05 -4.978955e-05 -8.220736e-09)	(1.605876e-08 4.561843e-05 2.920166e-09)
0.175         	(5.815114e-05 -1.859146e-05 -1.967140e-09)	(5.813154e-05 -6.522172e-05 -1.032529e-08)	(1.960162e-08 4.663026e-05 8.358146e-09)
0.175         	(5.815114e-05 -1.859146e-05 -1.967140e-09)	(5.813154e-05 -6.522172e-05 -1.032529e-08)	(1.960162e-08 4.663026e-05 8.358146e-09)
0.1775        	(-5.705209e-05 -3.129913e-06 2.226064e-08)	(-5.709085e-05 -5.068078e-05 1.007974e-08)	(3.876372e-08 4.755087e-05 1.218090e-08)
0.1775        	(-5.705209e-05 -3.129913e-06 2.226064e-08)	(-5.709085e-05 -5.068078e-05 1.007974e-08)	(3.876372e-08 4.755087e-05 1.218090e-08)
0.18          	(5.986969e-05 -1.128557e-05 4.118054e-08)	(5.982696e-05 -5.961157e-05 1.258075e-08)	(4.273085e-08 4.832600e-05 2.859979e-08)
0.18          	(5.986969e-05 -1.128557e-05 4.118054e-08)	(5.982696e-05 -5.961157e-05 1.258075e-08)	(4.273085e-08 4.832600e-05 2.859979e-08)
0.1825        	(-5.733292e-05 -9.828461e-06 -8.200244e-09)	(-5.736988e-05 -5.911687e-05 -1.146083e-08)	(3.696129e-08 4.928841e-05 3.260590e-09)
0.1825        	(-5.733292e-05 -9.828461e-06 -8.200244e-09)	(-5.736988e-05 -5.911687e-05 -1.146083e-08)	(3.696129e-08 4.928841e-05 3.260590e-09)
0.185         	(6.620058e-05 -8.417983e-06 3.434370e-08)	(6.617638e-05 -5.871452e-05 6.428509e-09)	(2.420123e-08 5.029653e-05 2.791519e-08)
0.185         	(6.620058e-05 -8.417983e-06 3.434370e-08)	(6.617638e-05 -5.871452e-05 6.428509e-09)	(2.420123e-08 5.029653e-05 2.791519e-08)
0.1875        	(-5.959957e-05 -7.651064e-06 1.391513e-08)	(-5.958300e-05 -5.896683e-05 -7.454734e-09)	(-1.657419e-08 5.131577e-05 2.136987e-08)
0.1875        	(-5.959957e-05 -7.651064e-06 1.391513e-08)	(-5.958300e-05 -5.896683e-05 -7.454734e-09)	(-1.657419e-08 5.131577e-05 2.136987e-08)
0.19          	(6.150848e-05 -3.892148e-06 3.206005e-08)	(6.146956e-05 -5.626694e-05 1.094613e-08)	(3.892843e-08 5.237479e-05 2.111392e-08)
0.19          	(6.150848e-05 -3.892148e-06 3.206005e-08)	(6.146956e-05 -5.626694e-05 1.094613e-08)	(3.892843e-08 5.237479e-05 2.111392e-08)
0.1925        	(-5.362313e-05 -1.322839e-06 4.753186e-09)	(-5.367467e-05 -5.469681e-05 -2.747420e-09)	(5.154350e-08 5.337397e-05 7.500606e-09)
0.1925        	(-5.362313e-05 -1.322839e-06 4.753186e-09)	(-5.367467e-05 -5.469681e-05 -2.747420e-09)	(5.154350e-08 5.337397e-05 7.500606e-09)
0.195         	(5.107901e-05 2.396856e-06 5.389761e-09)	(5.103118e-05 -5.207175e-05 -2.425396e-09)	(4.783364e-08 5.446860e-05 7.815157e-09)
0.195         	(5.107901e-05 2.396856e-06 5.389761e-09)	(5.103118e-05 -5.207175e-05 -2.425396e-09)	(4.783364e-08 5.446860e-05 7.815157e-09)
0.1975        	(-5.117896e-05 4.674585e-06 2.145182e-08)	(-5.120641e-05 -5.089657e-05 3.609528e-09)	(2.744820e-08 5.557115e-05 1.784230e-08)
0.1975        	(-5.117896e-05 4.674585e-06 2.145182e-08)	(-5.120641e-05 -5.089657e-05 3.609528e-09)	(2.744820e-08 5.557115e-05 1.784230e-08)
0.2           	(4.504218e-05 -6.556224e-06 1.694322e-08)	(4.499322e-05 -6.333332e-05 2.847917e-09)	(4.895868e-08 5.677710e-05 1.409531e-08)
0.2           	(4.504218e-05 -6.556224e-06 1.694322e-08)	(4.499322e-05 -6.333332e-05 2.847917e-09)	(4.895868e-08 5.677710e-05 1.409531e-08)
0.2025        	(-5.664072e-05 -7.315524e-06 5.374423e-09)	(-5.672299e-05 -6.532388e-05 -1.966254e-09)	(8.227547e-08 5.800835e-05 7.340677e-09)
0.2025        	(-5.664072e-05 -7.315524e-06 5.374423e-09)	(-5.672299e-05 -6.532388e-05 -1.966254e-09)	(8.227547e-08 5.800835e-05 7.340677e-09)
0.205         	(4.634601e-05 -1.583812e-05 7.589074e-09)	(4.630649e-05 -7.490726e-05 5.178554e-10)	(3.951851e-08 5.906914e-05 7.071219e-09)
0.205         	(4.634601e-05 -1.583812e-05 7.589074e-09)	(4.630649e-05 -7.490726e-05 5.178554e-10)	(3.951851e-08 5.906914e-05 7.071219e-09)
0.2075        	(-5.541158e-05 -2.408547e-06 7.957425e-09)	(-5.546478e-05 -6.273702e-05 2.313053e-11)	(5.319759e-08 6.032847e-05 7.934295e-09)
0.2075        	(-5.541158e-05 -2.408547e-06 7.957425e-09)	(-5.546478e-05 -6.273702e-05 2.313053e-11)	(5.319759e-08 6.032847e-05 7.934295e-09)
0.21          	(6.025734e-05 -6.070595e-06 1.383231e-08)	(6.021058e-05 -6.758528e-05 1.410146e-09)	(4.676332e-08 6.151468e-05 1.242216e-08)
0.21          	(6.025734e-05 -6.070595e-06 1.383231e-08)	(6.021058e-05 -6.758528e-05 1.410146e-09)	(4.676332e-08 6.151468e-05 1.242216e-08)
0.2125        	(-4.556478e-05 5.612587e-08 -2.238943e-09)	(-4.564076e-05 -6.275478e-05 8.413202e-10)	(7.598622e-08 6.281091e-05 -3.080263e-09)
0.2125        	(-4.556478e-05 5.612587e-08 -2.238943e-09)	(-4.564076e-05 -6.275478e-05 8.413202e-10)	(7.598622e-08 6.281091e-05 -3.080263e-09)
0.215         	(4.602012e-05 2.179492e-05 1.818513e-08)	(4.597832e-05 -4.211104e-05 1.954216e-09)	(4.179957e-08 6.390596e-05 1.623091e-08)
0.215         	(4.602012e-05 2.179492e-05 1.818513e-08)	(4.597832e-05 -4.211104e-05 1.954216e-09)	(4.179957e-08 6.390596e-05 1.623091e-08)
0.2175        	(-3.318249e-05 -1.623831e-05 7.758557e-09)	(-3.319754e-05 -8.151030e-05 -4.356871e-10)	(1.505518e-08 6.527198e-05 8.194245e-09)
0.2175        	(-3.318249e-05 -1.623831e-05 7.758557e-09)	(-3.319754e-05 -8.151030e-05 -4.356871e-10)	(1.505518e-08 6.527198e-05 8.194245e-09)
0.22          	(5.795559e-05 8.839145e-06 6.902300e-09)	(5.791290e-05 -5.766801e-05 -4.348127e-09)	(4.268387e-08 6.650716e-05 1.125043e-08)
0.22          	(5.795559e-05 8.839145e-06 6.902300e-09)	(5.791290e-05 -5.766801e-05 -4.348127e-09)	(4.268387e-08 6.650716e-05 1.125043e-08)
0.2225        	(-4.500216e-05 -3.797439e-05 2.742125e-08)	(-4.504394e-05 -1.057127e-04 7.144954e-09)	(4.177776e-08 6.773833e-05 2.027629e-08)
0.2225        	(-4.500216e-05 -3.797439e-05 2.742125e-08)	(-4.504394e-05 -1.057127e-04 7.144954e-09)	(4.177776e-08 6.773833e-05 2.027629e-08)
0.225         	(5.154287e-05 -9.623709e-06 1.957478e-08)	(5.147919e-05 -7.865840e-05 -2.641060e-11)	(6.367957e-08 6.903469e-05 1.960119e-08)
0.225         	(5.154287e-05 -9.623709e-06 1.957478e-08)	(5.147919e-05 -7.865840e-05 -2.641060e-11)	(6.367957e-08 6.903469e-05 1.960119e-08)
0.2275        	(-3.237343e-05 -3.605247e-05 1.693117e-08)	(-3.245147e-05 -1.065381e-04 2.674007e-09)	(7.804436e-08 7.048565e-05 1.425716e-08)
0.2275        	(-3.237343e-05 -3.605247e-05 1.693117e-08)	(-3.245147e-05 -1.065381e-04 2.674007e-09)	(7.804436e-08 7.048565e-05 1.425716e-08)
0.23          	(4.588880e-05 -6.586972e-06 1.122555e-08)	(4.579655e-05 -7.831926e-05 -6.136499e-09)	(9.224769e-08 7.173229e-05 1.736205e-08)
0.23          	(4.588880e-05 -6.586972e-06 1.122555e-08)	(4.579655e-05 -7.831926e-05 -6.136499e-09)	(9.224769e-08 7.173229e-05 1.736205e-08)
0.2325        	(-3.527315e-05 -3.360130e-05 3.739310e-08)	(-3.530480e-05 -1.066342e-04 9.973835e-09)	(3.164734e-08 7.303288e-05 2.741926e-08)
0.2325        	(-3.527315e-05 -3.360130e-05 3.739310e-08)	(-3.530480e-05 -1.066342e-04 9.973835e-09)	(3.164734e-08 7.303288e-05 2.741926e-08)
0.235         	(3.927166e-05 -3.686715e-05 3.204230e-08)	(3.919224e-05 -1.113026e-04 4.320293e-09)	(7.941699e-08 7.443542e-05 2.772201e-08)
0.235         	(3.927166e-05 -3.686715e-05 3.204230e-08)	(3.919224e-05 -1.113026e-04 4.320293e-09)	(7.941699e-08 7.443542e-05 2.772201e-08)
0.2375        	(-4.571049e-05 -2.315177e-05 1.793532e-08)	(-4.576776e-05 -9.916229e-05 -3.767784e-09)	(5.726049e-08 7.601053e-05 2.170310e-08)
0.2375        	(-4.571049e-05 -2.315177e-05 1.793532e-08)	(-4.576776e-05 -9.916229e-05 -3.767784e-09)	(5.726049e-08 7.601053e-05 2.170310e-08)
0.24          	(5.869050e-05 -1.672701e-05 1.399388e-08)	(5.864432e-05 -9.417453e-05 -2.174703e-09)	(4.617560e-08 7.744752e-05 1.616858e-08)
0.24          	(5.869050e-05 -1.672701e-05 1.399388e-08)	(5.864432e-05 -9.417453e-05 -2.174703e-09)	(4.617560e-08 7.744752e-05 1.616858e-08)
0.2425        	(-4.903566e-05 -9.206353e-06 9.692137e-09)	(-4.910936e-05 -8.822449e-05 3.101618e-09)	(7.369590e-08 7.901814e-05 6.590519e-09)
0.2425        	(-4.903566e-05 -9.206353e-06 9.692137e-09)	(-4.910936e-05 -8.822449e-05 3.101618e-09)	(7.369590e-08 7.901814e-05 6.590519e-09)
0.245         	(5.905454e-05 -3.598564e-06 2.202845e-08)	(5.902855e-05 -8.434400e-05 -1.723967e-10)	(2.599676e-08 8.074544e-05 2.220085e-08)
0.245         	(5.905454e-05 -3.598564e-06 2.202845e-08)	(5.902855e-05 -8.434400e-05 -1.723967e-10)	(2.599676e-08 8.074544e-05 2.220085e-08)
0.2475        	(-4.484908e-05 -1.527523e-06 1.745316e-08)	(-4.486022e-05 -8.413513e-05 1.067230e-09)	(1.114230e-08 8.260761e-05 1.638593e-08)
0.2475        	(-4.484908e-05 -1.527523e-06 1.745316e-08)	(-4.486022e-05 -8.413513e-05 1.067230e-09)	(1.114230e-08 8.260761e-05 1.638593e-08)
0.25          	(5.893887e-05 2.900128e-05 2.536759e-08)	(5.891525e-05 -5.553082e-05 -7.733028e-10)	(2.361946e-08 8.453210e-05 2.614090e-08)
0.25          	(5.893887e-05 2.900128e-05 2.536759e-08)	(5.891525e-05 -5.553082e-05 -7.733028e-10)	(2.361946e-08 8.453210e-05 2.614090e-08)
0.2525        	(-5.284088e-05 1.161795e-05 1.275680e-08)	(-5.285444e-05 -7.478911e-05 2.188646e-09)	(1.355869e-08 8.640706e-05 1.056815e-08)
0.2525        	(-5.284088e-05 1.161795e-05 1.275680e-08)	(-5.285444e-05 -7.478911e-05 2.188646e-09)	(1.355869e-08 8.640706e-05 1.056815e-08)
0.255         	(2.868325e-05 9.102017e-05 1.225764e-08)	(2.872758e-05 2.652174e-06 -8.490271e-10)	(-4.432284e-08 8.836800e-05 1.310667e-08)
0.255         	(2.868325e-05 9.102017e-05 1.225764e-08)	(2.872758e-05 2.652174e-06 -8.490271e-10)	(-4.432284e-08 8.836800e-05 1.310667e-08)
0.2575        	(-6.811233e-05 3.986757e-05 2.202452e-08)	(-6.811059e-05 -5.064400e-05 -1.378117e-09)	(-1.735054e-09 9.051157e-05 2.340264e-08)