# Probe 0 (0.05 0 0.1)
#       Probe             0
#        Time
            0             (0 0 0)
            0             (0 0 0)
       0.0025             (0.00021482 -4.69164e-09 9.26382e-05)
       0.0025             (0.00021482 -4.69164e-09 9.26382e-05)
        0.005             (0.00043645 1.90162e-09 0.000183436)
        0.005             (0.00043645 1.90162e-09 0.000183436)
       0.0075             (0.000661318 -3.30981e-09 0.000273044)
       0.0075             (0.000661318 -3.30981e-09 0.000273044)
         0.01             (0.000887227 -8.44846e-10 0.000361699)
         0.01             (0.000887227 -8.44846e-10 0.000361699)
       0.0125             (0.0011137 -3.93431e-09 0.000448613)
       0.0125             (0.0011137 -3.93431e-09 0.000448613)
        0.015             (0.00134032 -2.21142e-09 0.000534268)
        0.015             (0.00134032 -2.21142e-09 0.000534268)
       0.0175             (0.00156738 -1.88038e-08 0.000617814)
       0.0175             (0.00156738 -1.88038e-08 0.000617814)
         0.02             (0.00179457 -1.52762e-09 0.000700138)
         0.02             (0.00179457 -1.52762e-09 0.000700138)
       0.0225             (0.00202243 -3.25298e-08 0.000779949)
       0.0225             (0.00202243 -3.25298e-08 0.000779949)
        0.025             (0.0022505 -2.15772e-08 0.000858694)
        0.025             (0.0022505 -2.15772e-08 0.000858694)
       0.0275             (0.00247933 -5.15497e-08 0.000934982)
       0.0275             (0.00247933 -5.15497e-08 0.000934982)
         0.03             (0.0027088 -2.38588e-08 0.00100929)
         0.03             (0.0027088 -2.38588e-08 0.00100929)
       0.0325             (0.00293875 -5.37011e-08 0.00108218)
       0.0325             (0.00293875 -5.37011e-08 0.00108218)
        0.035             (0.0031693 -4.08853e-08 0.00115312)
        0.035             (0.0031693 -4.08853e-08 0.00115312)
       0.0375             (0.00340039 -7.08026e-08 0.0012224)
       0.0375             (0.00340039 -7.08026e-08 0.0012224)
         0.04             (0.00363201 -5.57137e-08 0.00129012)
         0.04             (0.00363201 -5.57137e-08 0.00129012)
       0.0425             (0.0038642 -8.36838e-08 0.00135611)
       0.0425             (0.0038642 -8.36838e-08 0.00135611)
        0.045             (0.00409689 -5.97004e-08 0.00142061)
        0.045             (0.00409689 -5.97004e-08 0.00142061)
       0.0475             (0.00433016 -1.01244e-07 0.00148348)
       0.0475             (0.00433016 -1.01244e-07 0.00148348)
         0.05             (0.00456388 -8.27041e-08 0.001545)
         0.05             (0.00456388 -8.27041e-08 0.001545)
       0.0525             (0.00479817 -1.65536e-07 0.00160483)
       0.0525             (0.00479817 -1.65536e-07 0.00160483)
        0.055             (0.00503295 -1.17398e-07 0.00166323)
        0.055             (0.00503295 -1.17398e-07 0.00166323)
       0.0575             (0.0052681 -1.48603e-07 0.00172055)
       0.0575             (0.0052681 -1.48603e-07 0.00172055)
         0.06             (0.00550376 -1.12814e-07 0.00177605)
         0.06             (0.00550376 -1.12814e-07 0.00177605)
       0.0625             (0.00573987 -1.88675e-07 0.00183058)
       0.0625             (0.00573987 -1.88675e-07 0.00183058)
        0.065             (0.00597629 -1.74166e-07 0.00188386)
        0.065             (0.00597629 -1.74166e-07 0.00188386)
       0.0675             (0.00621319 -2.29496e-07 0.00193557)
       0.0675             (0.00621319 -2.29496e-07 0.00193557)
         0.07             (0.00645051 -2.22443e-07 0.00198626)
         0.07             (0.00645051 -2.22443e-07 0.00198626)
       0.0725             (0.0066882 -2.46901e-07 0.00203567)
       0.0725             (0.0066882 -2.46901e-07 0.00203567)
        0.075             (0.00692621 -2.61607e-07 0.00208369)
        0.075             (0.00692621 -2.61607e-07 0.00208369)
       0.0775             (0.00716456 -2.87041e-07 0.00213088)
       0.0775             (0.00716456 -2.87041e-07 0.00213088)
         0.08             (0.00740322 -2.99265e-07 0.00217675)
         0.08             (0.00740322 -2.99265e-07 0.00217675)
       0.0825             (0.00764214 -3.04213e-07 0.00222201)
       0.0825             (0.00764214 -3.04213e-07 0.00222201)
        0.085             (0.00788148 -3.03873e-07 0.00226571)
        0.085             (0.00788148 -3.03873e-07 0.00226571)
       0.0875             (0.00812115 -3.31358e-07 0.00230842)
       0.0875             (0.00812115 -3.31358e-07 0.00230842)
         0.09             (0.00836109 -3.34414e-07 0.00235001)
         0.09             (0.00836109 -3.34414e-07 0.00235001)
       0.0925             (0.00860136 -3.6987e-07 0.00239071)
       0.0925             (0.00860136 -3.6987e-07 0.00239071)
        0.095             (0.00884186 -3.7062e-07 0.00243029)
        0.095             (0.00884186 -3.7062e-07 0.00243029)
       0.0975             (0.00908266 -4.27592e-07 0.00246905)
       0.0975             (0.00908266 -4.27592e-07 0.00246905)
          0.1             (0.00932371 -4.10341e-07 0.00250671)
          0.1             (0.00932371 -4.10341e-07 0.00250671)
          0.1             (0.00932371 -4.10341e-07 0.00250671)
       0.1025             (0.00956504 -4.52252e-07 0.00254358)
       0.1025             (0.00956504 -4.52252e-07 0.00254358)
       0.1025             (0.00956504 -4.52252e-07 0.00254358)
        0.105             (0.00980661 -4.8929e-07 0.00257933)
        0.105             (0.00980661 -4.8929e-07 0.00257933)
       0.1075             (0.0100485 -5.02236e-07 0.0026143)
       0.1075             (0.0100485 -5.02236e-07 0.0026143)
         0.11             (0.0102905 -4.9894e-07 0.00264827)
         0.11             (0.0102905 -4.9894e-07 0.00264827)
       0.1125             (0.0105328 -5.43196e-07 0.0026816)
       0.1125             (0.0105328 -5.43196e-07 0.0026816)
        0.115             (0.0107754 -5.83962e-07 0.00271382)
        0.115             (0.0107754 -5.83962e-07 0.00271382)
       0.1175             (0.0110181 -5.80554e-07 0.00274536)
       0.1175             (0.0110181 -5.80554e-07 0.00274536)
         0.12             (0.0112611 -5.90571e-07 0.00277598)
         0.12             (0.0112611 -5.90571e-07 0.00277598)
       0.1225             (0.0115043 -6.29431e-07 0.00280588)
       0.1225             (0.0115043 -6.29431e-07 0.00280588)
        0.125             (0.0117477 -6.79546e-07 0.00283491)
        0.125             (0.0117477 -6.79546e-07 0.00283491)
       0.1275             (0.0119913 -6.59351e-07 0.00286315)
       0.1275             (0.0119913 -6.59351e-07 0.00286315)
         0.13             (0.0122351 -6.77582e-07 0.00289049)
         0.13             (0.0122351 -6.77582e-07 0.00289049)
       0.1325             (0.0124791 -7.15005e-07 0.00291731)
       0.1325             (0.0124791 -7.15005e-07 0.00291731)
        0.135             (0.0127232 -7.42903e-07 0.00294313)
        0.135             (0.0127232 -7.42903e-07 0.00294313)
       0.1375             (0.0129676 -7.53255e-07 0.00296844)
       0.1375             (0.0129676 -7.53255e-07 0.00296844)
         0.14             (0.0132122 -7.70904e-07 0.00299283)
         0.14             (0.0132122 -7.70904e-07 0.00299283)
       0.1425             (0.0134569 -8.0134e-07 0.00301666)
       0.1425             (0.0134569 -8.0134e-07 0.00301666)
        0.145             (0.0137018 -8.05671e-07 0.00303971)
        0.145             (0.0137018 -8.05671e-07 0.00303971)
       0.1475             (0.0139469 -8.3267e-07 0.0030621)
       0.1475             (0.0139469 -8.3267e-07 0.0030621)
         0.15             (0.0141922 -8.58231e-07 0.00308381)
         0.15             (0.0141922 -8.58231e-07 0.00308381)
       0.1525             (0.0144376 8.54902e-07 0.00310503)
       0.1525             (0.0144376 8.54902e-07 0.00310503)
        0.155             (0.014683 8.69627e-07 0.00312571)
        0.155             (0.014683 8.69627e-07 0.00312571)
       0.1575             (0.0149288 8.75828e-07 0.00314563)
       0.1575             (0.0149288 8.75828e-07 0.00314563)
         0.16             (0.0151747 8.87245e-07 0.00316464)
         0.16             (0.0151747 8.87245e-07 0.00316464)
       0.1625             (0.0154208 9.11739e-07 0.00318319)
       0.1625             (0.0154208 9.11739e-07 0.00318319)
        0.165             (0.0156669 9.38679e-07 0.00320102)
        0.165             (0.0156669 9.38679e-07 0.00320102)
       0.1675             (0.0159133 9.5502e-07 0.0032185)
       0.1675             (0.0159133 9.5502e-07 0.0032185)
         0.17             (0.0161597 9.76235e-07 0.00323542)
         0.17             (0.0161597 9.76235e-07 0.00323542)
       0.1725             (0.0164063 9.70547e-07 0.00325162)
       0.1725             (0.0164063 9.70547e-07 0.00325162)
        0.175             (0.016653 1.00658e-06 0.00326711)
        0.175             (0.016653 1.00658e-06 0.00326711)
       0.1775             (0.0168999 1.02199e-06 0.00328219)
       0.1775             (0.0168999 1.02199e-06 0.00328219)
         0.18             (0.0171469 1.04768e-06 0.00329661)
         0.18             (0.0171469 1.04768e-06 0.00329661)
       0.1825             (0.017394 1.05948e-06 0.00331079)
       0.1825             (0.017394 1.05948e-06 0.00331079)
        0.185             (0.0176412 1.08493e-06 0.00332425)
        0.185             (0.0176412 1.08493e-06 0.00332425)
       0.1875             (0.0178886 1.09682e-06 0.00333709)
       0.1875             (0.0178886 1.09682e-06 0.00333709)
         0.19             (0.018136 1.12251e-06 0.00334951)
         0.19             (0.018136 1.12251e-06 0.00334951)
       0.1925             (0.0183835 1.11395e-06 0.00336154)
       0.1925             (0.0183835 1.11395e-06 0.00336154)
        0.195             (0.0186312 1.15501e-06 0.00337292)
        0.195             (0.0186312 1.15501e-06 0.00337292)
       0.1975             (0.018879 1.16402e-06 0.00338379)
       0.1975             (0.018879 1.16402e-06 0.00338379)
          0.2             (0.0191269 1.1816e-06 0.00339416)
          0.2             (0.0191269 1.1816e-06 0.00339416)
       0.2025             (0.0193749 1.18216e-06 0.00340427)
       0.2025             (0.0193749 1.18216e-06 0.00340427)
        0.205             (0.0196229 1.23181e-06 0.00341373)
        0.205             (0.0196229 1.23181e-06 0.00341373)
       0.2075             (0.0198711 1.21501e-06 0.0034228)
       0.2075             (0.0198711 1.21501e-06 0.0034228)
         0.21             (0.0201194 1.24858e-06 0.00343142)
         0.21             (0.0201194 1.24858e-06 0.00343142)
       0.2125             (0.0203677 1.24766e-06 0.00343971)
       0.2125             (0.0203677 1.24766e-06 0.00343971)
        0.215             (0.0206161 1.26442e-06 0.00344739)
        0.215             (0.0206161 1.26442e-06 0.00344739)
       0.2175             (0.0208647 1.28285e-06 0.00345484)
       0.2175             (0.0208647 1.28285e-06 0.00345484)
         0.22             (0.0211133 1.29696e-06 0.00346179)
         0.22             (0.0211133 1.29696e-06 0.00346179)
       0.2225             (0.021362 1.29271e-06 0.0034683)
       0.2225             (0.021362 1.29271e-06 0.0034683)
        0.225             (0.0216107 -1.30087e-06 0.00347445)
        0.225             (0.0216107 -1.30087e-06 0.00347445)
       0.2275             (0.0218596 -1.33156e-06 0.00348026)
       0.2275             (0.0218596 -1.33156e-06 0.00348026)
         0.23             (0.0221085 -1.30822e-06 0.00348553)
         0.23             (0.0221085 -1.30822e-06 0.00348553)
       0.2325             (0.0223575 -1.34228e-06 0.00349069)
       0.2325             (0.0223575 -1.34228e-06 0.00349069)
        0.235             (0.0226065 -1.33702e-06 0.00349529)
        0.235             (0.0226065 -1.33702e-06 0.00349529)
       0.2375             (0.0228557 -1.37051e-06 0.00349958)
       0.2375             (0.0228557 -1.37051e-06 0.00349958)
         0.24             (0.0231049 -1.372e-06 0.00350354)
         0.24             (0.0231049 -1.372e-06 0.00350354)
       0.2425             (0.0233541 -1.39243e-06 0.00350717)
       0.2425             (0.0233541 -1.39243e-06 0.00350717)
        0.245             (0.0236034 -1.3937e-06 0.00351051)
        0.245             (0.0236034 -1.3937e-06 0.00351051)
       0.2475             (0.0238527 -1.40322e-06 0.0035135)
       0.2475             (0.0238527 -1.40322e-06 0.0035135)
         0.25             (0.0241022 -1.41366e-06 0.003516)
         0.25             (0.0241022 -1.41366e-06 0.003516)
       0.2525             (0.0243517 -1.41606e-06 0.0035183)
       0.2525             (0.0243517 -1.41606e-06 0.0035183)
        0.255             (0.0246013 -1.42458e-06 0.00352019)
        0.255             (0.0246013 -1.42458e-06 0.00352019)
       0.2575             (0.0248509 -1.44281e-06 0.00352191)
       0.2575             (0.0248509 -1.44281e-06 0.00352191)
         0.26             (0.0251005 -1.44864e-06 0.00352338)
         0.26             (0.0251005 -1.44864e-06 0.00352338)
       0.2625             (0.0253502 -1.45118e-06 0.00352451)
       0.2625             (0.0253502 -1.45118e-06 0.00352451)
        0.265             (0.0256 -1.45173e-06 0.00352538)
        0.265             (0.0256 -1.45173e-06 0.00352538)
       0.2675             (0.0258497 -1.45079e-06 0.00352609)
       0.2675             (0.0258497 -1.45079e-06 0.00352609)
         0.27             (0.0260995 -1.45695e-06 0.0035264)
         0.27             (0.0260995 -1.45695e-06 0.0035264)
       0.2725             (0.0263494 -1.4627e-06 0.0035264)
       0.2725             (0.0263494 -1.4627e-06 0.0035264)
        0.275             (0.0265993 -1.45664e-06 0.0035262)
        0.275             (0.0265993 -1.45664e-06 0.0035262)
       0.2775             (0.0268492 -1.45699e-06 0.0035259)
       0.2775             (0.0268492 -1.45699e-06 0.0035259)
         0.28             (0.0270992 -1.44729e-06 0.00352516)
         0.28             (0.0270992 -1.44729e-06 0.00352516)
       0.2825             (0.0273493 -1.46274e-06 0.00352414)
       0.2825             (0.0273493 -1.46274e-06 0.00352414)
        0.285             (0.0275994 -1.44487e-06 0.00352299)
        0.285             (0.0275994 -1.44487e-06 0.00352299)
       0.2875             (0.0278494 -1.45294e-06 0.00352167)
       0.2875             (0.0278494 -1.45294e-06 0.00352167)
         0.29             (0.0280995 -1.43377e-06 0.00352006)
         0.29             (0.0280995 -1.43377e-06 0.00352006)
       0.2925             (0.0283497 -1.45583e-06 0.00351806)
       0.2925             (0.0283497 -1.45583e-06 0.00351806)
        0.295             (0.0285999 -1.42845e-06 0.00351602)
        0.295             (0.0285999 -1.42845e-06 0.00351602)
       0.2975             (0.0288501 -1.44831e-06 0.00351376)
       0.2975             (0.0288501 -1.44831e-06 0.00351376)
          0.3             (0.0291004 -1.43036e-06 0.00351119)
          0.3             (0.0291004 -1.43036e-06 0.00351119)
       0.3025             (0.0293506 -1.44553e-06 0.00350855)
       0.3025             (0.0293506 -1.44553e-06 0.00350855)
        0.305             (0.0296008 -1.42868e-06 0.00350572)
        0.305             (0.0296008 -1.42868e-06 0.00350572)
       0.3075             (0.0298511 -1.43633e-06 0.00350268)
       0.3075             (0.0298511 -1.43633e-06 0.00350268)
         0.31             (0.0301014 -1.4113e-06 0.00349947)
         0.31             (0.0301014 -1.4113e-06 0.00349947)
       0.3125             (0.0303517 -1.42273e-06 0.00349609)
       0.3125             (0.0303517 -1.42273e-06 0.00349609)
        0.315             (0.030602 -1.39396e-06 0.00349255)
        0.315             (0.030602 -1.39396e-06 0.00349255)
       0.3175             (0.0308523 -1.40635e-06 0.00348901)
       0.3175             (0.0308523 -1.40635e-06 0.00348901)
         0.32             (0.0311027 -1.3892e-06 0.00348505)
         0.32             (0.0311027 -1.3892e-06 0.00348505)
       0.3225             (0.0313531 -1.39434e-06 0.00348109)
       0.3225             (0.0313531 -1.39434e-06 0.00348109)
        0.325             (0.0316035 -1.35527e-06 0.00347707)
        0.325             (0.0316035 -1.35527e-06 0.00347707)
       0.3275             (0.0318539 -1.38549e-06 0.00347277)
       0.3275             (0.0318539 -1.38549e-06 0.00347277)
         0.33             (0.0321043 -1.34609e-06 0.00346828)
         0.33             (0.0321043 -1.34609e-06 0.00346828)
       0.3325             (0.0323546 -1.3646e-06 0.00346391)
       0.3325             (0.0323546 -1.3646e-06 0.00346391)
        0.335             (0.032605 -1.32676e-06 0.00345931)
        0.335             (0.032605 -1.32676e-06 0.00345931)
       0.3375             (0.0328554 -1.33411e-06 0.00345452)
       0.3375             (0.0328554 -1.33411e-06 0.00345452)
         0.34             (0.0331057 -1.28558e-06 0.0034498)
         0.34             (0.0331057 -1.28558e-06 0.0034498)
       0.3425             (0.0333561 -1.30203e-06 0.00344477)
       0.3425             (0.0333561 -1.30203e-06 0.00344477)
        0.345             (0.0336065 -1.26936e-06 0.00343964)
        0.345             (0.0336065 -1.26936e-06 0.00343964)
       0.3475             (0.0338569 1.29588e-06 0.00343452)
       0.3475             (0.0338569 1.29588e-06 0.00343452)
         0.35             (0.0341072 1.27454e-06 0.00342938)
         0.35             (0.0341072 1.27454e-06 0.00342938)
       0.3525             (0.0343577 1.26269e-06 0.00342384)
       0.3525             (0.0343577 1.26269e-06 0.00342384)
        0.355             (0.0346081 1.25742e-06 0.00341826)
        0.355             (0.0346081 1.25742e-06 0.00341826)
       0.3575             (0.0348585 1.24229e-06 0.00341259)
       0.3575             (0.0348585 1.24229e-06 0.00341259)
         0.36             (0.0351088 1.22159e-06 0.00340716)
         0.36             (0.0351088 1.22159e-06 0.00340716)
       0.3625             (0.0353591 1.19609e-06 0.00340162)
       0.3625             (0.0353591 1.19609e-06 0.00340162)
        0.365             (0.0356094 1.17375e-06 0.00339601)
        0.365             (0.0356094 1.17375e-06 0.00339601)
       0.3675             (0.0358598 1.16417e-06 0.00338993)
       0.3675             (0.0358598 1.16417e-06 0.00338993)
         0.37             (0.0361102 1.15365e-06 0.00338382)
         0.37             (0.0361102 1.15365e-06 0.00338382)
       0.3725             (0.0363605 1.14083e-06 0.00337775)
       0.3725             (0.0363605 1.14083e-06 0.00337775)
        0.375             (0.0366107 1.12387e-06 0.00337177)
        0.375             (0.0366107 1.12387e-06 0.00337177)
       0.3775             (0.0368609 1.0934e-06 0.00336581)
       0.3775             (0.0368609 1.0934e-06 0.00336581)
         0.38             (0.0371111 1.0778e-06 0.00335975)
         0.38             (0.0371111 1.0778e-06 0.00335975)
       0.3825             (0.0373613 1.04362e-06 0.00335367)
       0.3825             (0.0373613 1.04362e-06 0.00335367)
        0.385             (0.0376115 1.02063e-06 0.00334749)
        0.385             (0.0376115 1.02063e-06 0.00334749)
       0.3875             (0.0378616 9.91673e-07 0.00334128)
       0.3875             (0.0378616 9.91673e-07 0.00334128)
         0.39             (0.0381118 9.67167e-07 0.00333499)
         0.39             (0.0381118 9.67167e-07 0.00333499)
       0.3925             (0.0383619 9.39891e-07 0.00332866)
       0.3925             (0.0383619 9.39891e-07 0.00332866)
        0.395             (0.038612 9.13067e-07 0.00332228)
        0.395             (0.038612 9.13067e-07 0.00332228)
       0.3975             (0.038862 8.85461e-07 0.00331586)
       0.3975             (0.038862 8.85461e-07 0.00331586)
          0.4             (0.0391121 8.58753e-07 0.0033094)
          0.4             (0.0391121 8.58753e-07 0.0033094)
       0.4025             (0.0393621 8.32476e-07 0.0033029)
       0.4025             (0.0393621 8.32476e-07 0.0033029)
        0.405             (0.039612 8.06627e-07 0.00329637)
        0.405             (0.039612 8.06627e-07 0.00329637)
       0.4075             (0.0398619 7.78433e-07 0.00328981)
       0.4075             (0.0398619 7.78433e-07 0.00328981)
         0.41             (0.0401118 7.52765e-07 0.00328323)
         0.41             (0.0401118 7.52765e-07 0.00328323)
       0.4125             (0.0403616 7.26222e-07 0.00327663)
       0.4125             (0.0403616 7.26222e-07 0.00327663)
        0.415             (0.0406114 6.98232e-07 0.00327)
        0.415             (0.0406114 6.98232e-07 0.00327)
       0.4175             (0.0408611 6.70023e-07 0.00326336)
       0.4175             (0.0408611 6.70023e-07 0.00326336)
         0.42             (0.0411107 -6.25721e-07 0.00325672)
         0.42             (0.0411107 -6.25721e-07 0.00325672)
       0.4225             (0.0413603 -5.98342e-07 0.00325008)
       0.4225             (0.0413603 -5.98342e-07 0.00325008)
        0.425             (0.0416099 -5.69012e-07 0.00324344)
        0.425             (0.0416099 -5.69012e-07 0.00324344)
       0.4275             (0.0418593 -5.40388e-07 0.00323681)
       0.4275             (0.0418593 -5.40388e-07 0.00323681)
         0.43             (0.0421089 -5.16062e-07 0.00323005)
         0.43             (0.0421089 -5.16062e-07 0.00323005)
       0.4325             (0.042359 -4.85628e-07 0.00322303)
       0.4325             (0.042359 -4.85628e-07 0.00322303)
        0.435             (0.0426092 -4.57127e-07 0.00321589)
        0.435             (0.0426092 -4.57127e-07 0.00321589)
       0.4375             (0.0428595 -4.28339e-07 0.00320874)
       0.4375             (0.0428595 -4.28339e-07 0.00320874)
         0.44             (0.0431099 -3.93914e-07 0.00320161)
         0.44             (0.0431099 -3.93914e-07 0.00320161)
       0.4425             (0.0433604 -3.7758e-07 0.0031943)
       0.4425             (0.0433604 -3.7758e-07 0.0031943)
        0.445             (0.0436109 -3.44991e-07 0.00318711)
        0.445             (0.0436109 -3.44991e-07 0.00318711)
       0.4475             (0.0438614 -3.15957e-07 0.00317995)
       0.4475             (0.0438614 -3.15957e-07 0.00317995)
         0.45             (0.0441118 -2.81952e-07 0.00317286)
         0.45             (0.0441118 -2.81952e-07 0.00317286)
       0.4525             (0.0443623 -2.51924e-07 0.00316575)
       0.4525             (0.0443623 -2.51924e-07 0.00316575)
        0.455             (0.0446128 -2.18831e-07 0.0031587)
        0.455             (0.0446128 -2.18831e-07 0.0031587)
       0.4575             (0.0448633 -1.89286e-07 0.00315162)
       0.4575             (0.0448633 -1.89286e-07 0.00315162)
         0.46             (0.0451138 -1.55337e-07 0.0031446)
         0.46             (0.0451138 -1.55337e-07 0.0031446)
       0.4625             (0.0453644 -1.2638e-07 0.00313755)
       0.4625             (0.0453644 -1.2638e-07 0.00313755)
        0.465             (0.0456149 -9.14691e-08 0.00313056)
        0.465             (0.0456149 -9.14691e-08 0.00313056)
       0.4675             (0.0458654 -6.19088e-08 0.00312354)
       0.4675             (0.0458654 -6.19088e-08 0.00312354)
         0.47             (0.0461159 -2.80613e-08 0.00311658)
         0.47             (0.0461159 -2.80613e-08 0.00311658)
       0.4725             (0.0463664 1.36459e-09 0.00310961)
       0.4725             (0.0463664 1.36459e-09 0.00310961)
        0.475             (0.0466169 3.58982e-08 0.00310269)
        0.475             (0.0466169 3.58982e-08 0.00310269)
       0.4775             (0.0468674 6.48404e-08 0.00309575)
       0.4775             (0.0468674 6.48404e-08 0.00309575)
         0.48             (0.0471178 9.8942e-08 0.00308887)
         0.48             (0.0471178 9.8942e-08 0.00308887)
       0.4825             (0.0473683 1.2668e-07 0.00308195)
       0.4825             (0.0473683 1.2668e-07 0.00308195)
        0.485             (0.0476188 1.59206e-07 0.0030751)
        0.485             (0.0476188 1.59206e-07 0.0030751)
       0.4875             (0.0478692 1.88345e-07 0.00306824)
       0.4875             (0.0478692 1.88345e-07 0.00306824)
         0.49             (0.0481197 2.21907e-07 0.00306144)
         0.49             (0.0481197 2.21907e-07 0.00306144)
       0.4925             (0.0483701 2.50274e-07 0.00305464)
       0.4925             (0.0483701 2.50274e-07 0.00305464)
        0.495             (0.0486205 2.83434e-07 0.0030479)
        0.495             (0.0486205 2.83434e-07 0.0030479)
       0.4975             (0.0488709 3.12129e-07 0.00304116)
       0.4975             (0.0488709 3.12129e-07 0.00304116)
          0.5             (0.0491213 3.45208e-07 0.0030345)
          0.5             (0.0491213 3.45208e-07 0.0030345)
       0.5025             (0.0493717 3.73502e-07 0.00302782)
       0.5025             (0.0493717 3.73502e-07 0.00302782)
        0.505             (0.049622 4.06386e-07 0.00302123)
        0.505             (0.049622 4.06386e-07 0.00302123)
       0.5075             (0.0498724 -4.17339e-07 0.00301462)
       0.5075             (0.0498724 -4.17339e-07 0.00301462)
         0.51             (0.0501227 -4.49862e-07 0.0030081)
         0.51             (0.0501227 -4.49862e-07 0.0030081)
       0.5125             (0.0503731 -4.77248e-07 0.00300156)
       0.5125             (0.0503731 -4.77248e-07 0.00300156)
        0.515             (0.0506234 -5.10607e-07 0.00299511)
        0.515             (0.0506234 -5.10607e-07 0.00299511)
       0.5175             (0.0508737 -5.3641e-07 0.0029886)
       0.5175             (0.0508737 -5.3641e-07 0.0029886)
         0.52             (0.051124 -5.69854e-07 0.0029822)
         0.52             (0.051124 -5.69854e-07 0.0029822)
       0.5225             (0.0513743 -5.95194e-07 0.00297575)
       0.5225             (0.0513743 -5.95194e-07 0.00297575)
        0.525             (0.0516246 -6.28144e-07 0.00296942)
        0.525             (0.0516246 -6.28144e-07 0.00296942)
       0.5275             (0.0518749 -6.525e-07 0.00296303)
       0.5275             (0.0518749 -6.525e-07 0.00296303)
         0.53             (0.0521251 -6.85596e-07 0.00295677)
         0.53             (0.0521251 -6.85596e-07 0.00295677)
       0.5325             (0.0523754 -7.09378e-07 0.00295046)
       0.5325             (0.0523754 -7.09378e-07 0.00295046)
        0.535             (0.0526256 -7.4146e-07 0.00294429)
        0.535             (0.0526256 -7.4146e-07 0.00294429)
       0.5375             (0.0528759 -7.64965e-07 0.00293806)
       0.5375             (0.0528759 -7.64965e-07 0.00293806)
         0.54             (0.053126 -7.98482e-07 0.00293199)
         0.54             (0.053126 -7.98482e-07 0.00293199)
       0.5425             (0.0533762 -8.19356e-07 0.00292585)
       0.5425             (0.0533762 -8.19356e-07 0.00292585)
        0.545             (0.0536264 -8.50479e-07 0.00291986)
        0.545             (0.0536264 -8.50479e-07 0.00291986)
       0.5475             (0.0538766 -8.72937e-07 0.00291382)
       0.5475             (0.0538766 -8.72937e-07 0.00291382)
         0.55             (0.0541267 -9.0347e-07 0.00290793)
         0.55             (0.0541267 -9.0347e-07 0.00290793)
       0.5525             (0.0543768 -9.24934e-07 0.00290198)
       0.5525             (0.0543768 -9.24934e-07 0.00290198)
        0.555             (0.0546269 -9.55061e-07 0.0028962)
        0.555             (0.0546269 -9.55061e-07 0.0028962)
       0.5575             (0.054877 -9.75549e-07 0.00289035)
       0.5575             (0.054877 -9.75549e-07 0.00289035)
         0.56             (0.055127 -1.00821e-06 0.00288466)
         0.56             (0.055127 -1.00821e-06 0.00288466)
       0.5625             (0.0553771 -1.02574e-06 0.00287889)
       0.5625             (0.0553771 -1.02574e-06 0.00287889)
        0.565             (0.0556272 -1.04984e-06 0.00287323)
        0.565             (0.0556272 -1.04984e-06 0.00287323)
       0.5675             (0.0558773 -1.06813e-06 0.00286751)
       0.5675             (0.0558773 -1.06813e-06 0.00286751)
         0.57             (0.0561273 -1.0907e-06 0.00286194)
         0.57             (0.0561273 -1.0907e-06 0.00286194)
       0.5725             (0.0563773 -1.11533e-06 0.00285645)
       0.5725             (0.0563773 -1.11533e-06 0.00285645)
        0.575             (0.0566273 -1.13673e-06 0.00285095)
        0.575             (0.0566273 -1.13673e-06 0.00285095)
       0.5775             (0.0568772 -1.16073e-06 0.00284558)
       0.5775             (0.0568772 -1.16073e-06 0.00284558)
         0.58             (0.0571271 -1.1847e-06 0.00284027)
         0.58             (0.0571271 -1.1847e-06 0.00284027)
       0.5825             (0.0573771 1.22233e-06 0.00283494)
       0.5825             (0.0573771 1.22233e-06 0.00283494)
        0.585             (0.057627 1.24508e-06 0.00282974)
        0.585             (0.057627 1.24508e-06 0.00282974)
       0.5875             (0.0578769 1.26719e-06 0.00282458)
       0.5875             (0.0578769 1.26719e-06 0.00282458)
         0.59             (0.0581267 1.28487e-06 0.00281942)
         0.59             (0.0581267 1.28487e-06 0.00281942)
       0.5925             (0.0583766 1.31087e-06 0.00281437)
       0.5925             (0.0583766 1.31087e-06 0.00281437)
        0.595             (0.0586264 1.32963e-06 0.00280938)
        0.595             (0.0586264 1.32963e-06 0.00280938)
       0.5975             (0.0588763 1.3474e-06 0.00280438)
       0.5975             (0.0588763 1.3474e-06 0.00280438)
          0.6             (0.0591261 1.36591e-06 0.00279948)
          0.6             (0.0591261 1.36591e-06 0.00279948)
       0.6025             (0.0593759 1.38455e-06 0.00279457)
       0.6025             (0.0593759 1.38455e-06 0.00279457)
        0.605             (0.0596257 1.40194e-06 0.00278981)