# Force bins  
# bins        : 3
# start       : 4.263142e-03
# end         : 5.000496e-01
# delta       : 1.652621e-01
# direction   : (0.000000e+00 0.000000e+00 1.000000e+00)
# x co-ords  :	0.000000e+00	0.000000e+00	0.000000e+00
# y co-ords  :	0.000000e+00	0.000000e+00	0.000000e+00
# z co-ords  :	1.695253e-01	3.347874e-01	5.000496e-01
#
# Time        	0:(total_x total_y total_z)	0:(pressure_x pressure_y pressure_z)	0:(viscous_x viscous_y viscous_z)	1:(total_x total_y total_z)	1:(pressure_x pressure_y pressure_z)	1:(viscous_x viscous_y viscous_z)	2:(total_x total_y total_z)	2:(pressure_x pressure_y pressure_z)	2:(viscous_x viscous_y viscous_z)
0             	(-7.611685e-08 1.864102e-09 -4.241071e-03)	(-7.611685e-08 1.864102e-09 -4.241071e-03)	(0.000000e+00 0.000000e+00 0.000000e+00)	(7.143473e-05 1.283088e-05 -5.898952e-01)	(7.143473e-05 1.283088e-05 -5.898952e-01)	(0.000000e+00 0.000000e+00 0.000000e+00)	(1.437105e-11 1.432591e-13 3.866609e-02)	(1.437105e-11 1.432591e-13 3.866609e-02)	(0.000000e+00 0.000000e+00 0.000000e+00)
0             	(-7.611685e-08 1.864102e-09 -4.241071e-03)	(-7.611685e-08 1.864102e-09 -4.241071e-03)	(0.000000e+00 0.000000e+00 0.000000e+00)	(7.143473e-05 1.283088e-05 -5.898952e-01)	(7.143473e-05 1.283088e-05 -5.898952e-01)	(0.000000e+00 0.000000e+00 0.000000e+00)	(1.437105e-11 1.432591e-13 3.866609e-02)	(1.437105e-11 1.432591e-13 3.866609e-02)	(0.000000e+00 0.000000e+00 0.000000e+00)
0.005         	(1.288954e-05 5.371625e-06 -8.203247e-01)	(1.289311e-05 5.368114e-06 -8.203206e-01)	(-3.565892e-09 3.511457e-09 -4.097237e-06)	(-2.765054e-05 -3.565688e-05 8.717655e-03)	(-2.802653e-05 -3.565988e-05 8.737091e-03)	(3.759897e-07 2.996813e-09 -1.943596e-05)	(3.325508e-06 1.695907e-08 3.864655e-02)	(2.507225e-06 1.695538e-08 3.866093e-02)	(8.182827e-07 3.688143e-12 -1.437965e-05)
0.005         	(1.288954e-05 5.371625e-06 -8.203247e-01)	(1.289311e-05 5.368114e-06 -8.203206e-01)	(-3.565892e-09 3.511457e-09 -4.097237e-06)	(-2.765054e-05 -3.565688e-05 8.717655e-03)	(-2.802653e-05 -3.565988e-05 8.737091e-03)	(3.759897e-07 2.996813e-09 -1.943596e-05)	(3.325508e-06 1.695907e-08 3.864655e-02)	(2.507225e-06 1.695538e-08 3.866093e-02)	(8.182827e-07 3.688143e-12 -1.437965e-05)
0.01          	(2.761447e-05 6.731349e-05 -8.203534e-01)	(2.760598e-05 6.725468e-05 -8.203412e-01)	(8.497180e-09 5.880251e-08 -1.221402e-05)	(-8.400344e-05 3.530103e-05 9.743979e-03)	(-7.292225e-05 3.621384e-05 8.195924e-03)	(-1.108120e-05 -9.128119e-07 1.548055e-03)	(6.971534e-06 9.660897e-07 3.858419e-02)	(1.785078e-06 3.560815e-07 3.866081e-02)	(5.186455e-06 6.100082e-07 -7.661426e-05)
0.01          	(2.761447e-05 6.731349e-05 -8.203534e-01)	(2.760598e-05 6.725468e-05 -8.203412e-01)	(8.497180e-09 5.880251e-08 -1.221402e-05)	(-8.400344e-05 3.530103e-05 9.743979e-03)	(-7.292225e-05 3.621384e-05 8.195924e-03)	(-1.108120e-05 -9.128119e-07 1.548055e-03)	(6.971534e-06 9.660897e-07 3.858419e-02)	(1.785078e-06 3.560815e-07 3.866081e-02)	(5.186455e-06 6.100082e-07 -7.661426e-05)
0.015         	(-1.532198e-05 -8.522658e-05 -8.203556e-01)	(-1.531809e-05 -8.522211e-05 -8.203424e-01)	(-3.885507e-09 -4.477138e-09 -1.320240e-05)	(-2.523701e-05 -2.511808e-04 6.090010e-03)	(-6.412433e-05 -2.488790e-04 7.562608e-03)	(3.888732e-05 -2.301851e-06 -1.472598e-03)	(1.456597e-05 -3.775953e-07 3.852210e-02)	(2.874689e-06 -4.189414e-07 3.866395e-02)	(1.169128e-05 4.134609e-08 -1.418524e-04)
0.015         	(-1.532198e-05 -8.522658e-05 -8.203556e-01)	(-1.531809e-05 -8.522211e-05 -8.203424e-01)	(-3.885507e-09 -4.477138e-09 -1.320240e-05)	(-2.523701e-05 -2.511808e-04 6.090010e-03)	(-6.412433e-05 -2.488790e-04 7.562608e-03)	(3.888732e-05 -2.301851e-06 -1.472598e-03)	(1.456597e-05 -3.775953e-07 3.852210e-02)	(2.874689e-06 -4.189414e-07 3.866395e-02)	(1.169128e-05 4.134609e-08 -1.418524e-04)
0.02          	(6.237099e-05 8.482638e-05 -8.203431e-01)	(6.230672e-05 8.477224e-05 -8.203318e-01)	(6.427264e-08 5.414088e-08 -1.124551e-05)	(8.390541e-05 -5.221922e-05 6.705618e-03)	(5.814119e-05 -5.753503e-05 9.000040e-03)	(2.576422e-05 5.315811e-06 -2.294422e-03)	(2.256681e-05 -5.802220e-07 3.848788e-02)	(3.442001e-06 -2.847903e-07 3.866340e-02)	(1.912481e-05 -2.954317e-07 -1.755161e-04)
0.02          	(6.237099e-05 8.482638e-05 -8.203431e-01)	(6.230672e-05 8.477224e-05 -8.203318e-01)	(6.427264e-08 5.414088e-08 -1.124551e-05)	(8.390541e-05 -5.221922e-05 6.705618e-03)	(5.814119e-05 -5.753503e-05 9.000040e-03)	(2.576422e-05 5.315811e-06 -2.294422e-03)	(2.256681e-05 -5.802220e-07 3.848788e-02)	(3.442001e-06 -2.847903e-07 3.866340e-02)	(1.912481e-05 -2.954317e-07 -1.755161e-04)
0.025         	(8.315629e-05 -8.044630e-05 -8.203528e-01)	(8.304315e-05 -8.040120e-05 -8.203392e-01)	(1.131358e-07 -4.509107e-08 -1.355071e-05)	(7.810134e-05 -1.164506e-04 7.194492e-03)	(3.758064e-05 -1.242475e-04 8.556168e-03)	(4.052070e-05 7.796819e-06 -1.361676e-03)	(2.724875e-05 -3.107495e-07 3.847471e-02)	(2.768261e-06 3.328936e-08 3.866264e-02)	(2.448049e-05 -3.440389e-07 -1.879274e-04)
0.025         	(8.315629e-05 -8.044630e-05 -8.203528e-01)	(8.304315e-05 -8.040120e-05 -8.203392e-01)	(1.131358e-07 -4.509107e-08 -1.355071e-05)	(7.810134e-05 -1.164506e-04 7.194492e-03)	(3.758064e-05 -1.242475e-04 8.556168e-03)	(4.052070e-05 7.796819e-06 -1.361676e-03)	(2.724875e-05 -3.107495e-07 3.847471e-02)	(2.768261e-06 3.328936e-08 3.866264e-02)	(2.448049e-05 -3.440389e-07 -1.879274e-04)
0.03          	(-5.269475e-05 1.541293e-04 -8.203603e-01)	(-5.275846e-05 1.540605e-04 -8.203411e-01)	(6.371200e-08 6.881571e-08 -1.915192e-05)	(-1.417066e-04 7.911032e-05 7.308109e-03)	(-1.534511e-04 5.830884e-05 8.258366e-03)	(1.174455e-05 2.080147e-05 -9.502568e-04)	(2.690569e-05 2.496065e-06 3.847393e-02)	(1.121148e-06 1.128416e-06 3.866153e-02)	(2.578454e-05 1.367649e-06 -1.875989e-04)
0.03          	(-5.269475e-05 1.541293e-04 -8.203603e-01)	(-5.275846e-05 1.540605e-04 -8.203411e-01)	(6.371200e-08 6.881571e-08 -1.915192e-05)	(-1.417066e-04 7.911032e-05 7.308109e-03)	(-1.534511e-04 5.830884e-05 8.258366e-03)	(1.174455e-05 2.080147e-05 -9.502568e-04)	(2.690569e-05 2.496065e-06 3.847393e-02)	(1.121148e-06 1.128416e-06 3.866153e-02)	(2.578454e-05 1.367649e-06 -1.875989e-04)
0.035         	(6.805012e-05 -1.124694e-04 -8.203541e-01)	(6.797711e-05 -1.124583e-04 -8.203325e-01)	(7.300664e-08 -1.101810e-08 -2.154947e-05)	(-1.002964e-04 1.880495e-05 6.388041e-03)	(-6.837282e-05 -7.951673e-06 8.819701e-03)	(-3.192360e-05 2.675663e-05 -2.431660e-03)	(4.295955e-05 9.619604e-07 3.845969e-02)	(5.718492e-06 -1.848409e-07 3.866287e-02)	(3.724106e-05 1.146801e-06 -2.031809e-04)
0.035         	(6.805012e-05 -1.124694e-04 -8.203541e-01)	(6.797711e-05 -1.124583e-04 -8.203325e-01)	(7.300664e-08 -1.101810e-08 -2.154947e-05)	(-1.002964e-04 1.880495e-05 6.388041e-03)	(-6.837282e-05 -7.951673e-06 8.819701e-03)	(-3.192360e-05 2.675663e-05 -2.431660e-03)	(4.295955e-05 9.619604e-07 3.845969e-02)	(5.718492e-06 -1.848409e-07 3.866287e-02)	(3.724106e-05 1.146801e-06 -2.031809e-04)
0.04          	(1.511519e-05 2.139935e-05 -8.203520e-01)	(1.508677e-05 2.133098e-05 -8.203348e-01)	(2.841830e-08 6.836790e-08 -1.719490e-05)	(1.451237e-05 -1.444448e-04 5.467170e-03)	(2.859141e-05 -1.630040e-04 8.671485e-03)	(-1.407904e-05 1.855929e-05 -3.204315e-03)	(4.760310e-05 2.603416e-06 3.848835e-02)	(3.859245e-06 5.795522e-07 3.866394e-02)	(4.374385e-05 2.023864e-06 -1.755907e-04)
0.04          	(1.511519e-05 2.139935e-05 -8.203520e-01)	(1.508677e-05 2.133098e-05 -8.203348e-01)	(2.841830e-08 6.836790e-08 -1.719490e-05)	(1.451237e-05 -1.444448e-04 5.467170e-03)	(2.859141e-05 -1.630040e-04 8.671485e-03)	(-1.407904e-05 1.855929e-05 -3.204315e-03)	(4.760310e-05 2.603416e-06 3.848835e-02)	(3.859245e-06 5.795522e-07 3.866394e-02)	(4.374385e-05 2.023864e-06 -1.755907e-04)
0.045         	(7.846329e-05 9.256670e-05 -8.203512e-01)	(7.841037e-05 9.248578e-05 -8.203406e-01)	(5.291844e-08 8.092041e-08 -1.064995e-05)	(4.917370e-05 -1.061119e-04 5.628055e-03)	(4.930261e-05 -1.032000e-04 8.512104e-03)	(-1.289004e-07 -2.911904e-06 -2.884049e-03)	(4.631343e-05 -1.300890e-05 3.852182e-02)	(1.476996e-06 -6.065584e-06 3.866693e-02)	(4.483644e-05 -6.943317e-06 -1.451069e-04)
0.045         	(7.846329e-05 9.256670e-05 -8.203512e-01)	(7.841037e-05 9.248578e-05 -8.203406e-01)	(5.291844e-08 8.092041e-08 -1.064995e-05)	(4.917370e-05 -1.061119e-04 5.628055e-03)	(4.930261e-05 -1.032000e-04 8.512104e-03)	(-1.289004e-07 -2.911904e-06 -2.884049e-03)	(4.631343e-05 -1.300890e-05 3.852182e-02)	(1.476996e-06 -6.065584e-06 3.866693e-02)	(4.483644e-05 -6.943317e-06 -1.451069e-04)
0.05          	(-1.251661e-04 1.835325e-05 -8.203522e-01)	(-1.252160e-04 1.830617e-05 -8.203430e-01)	(4.984116e-08 4.708170e-08 -9.142142e-06)	(-1.592794e-04 -5.276295e-05 6.919269e-03)	(-1.658900e-04 -3.687631e-05 8.145711e-03)	(6.610561e-06 -1.588664e-05 -1.226442e-03)	(5.307439e-05 7.487219e-06 3.855552e-02)	(3.292645e-06 5.768449e-06 3.866545e-02)	(4.978174e-05 1.718769e-06 -1.099329e-04)
0.05          	(-1.251661e-04 1.835325e-05 -8.203522e-01)	(-1.252160e-04 1.830617e-05 -8.203430e-01)	(4.984116e-08 4.708170e-08 -9.142142e-06)	(-1.592794e-04 -5.276295e-05 6.919269e-03)	(-1.658900e-04 -3.687631e-05 8.145711e-03)	(6.610561e-06 -1.588664e-05 -1.226442e-03)	(5.307439e-05 7.487219e-06 3.855552e-02)	(3.292645e-06 5.768449e-06 3.866545e-02)	(4.978174e-05 1.718769e-06 -1.099329e-04)
0.055         	(1.282490e-04 2.723821e-05 -8.203297e-01)	(1.281383e-04 2.716359e-05 -8.203173e-01)	(1.107296e-07 7.461977e-08 -1.237068e-05)	(-1.766328e-04 3.849256e-04 5.745865e-03)	(-1.761017e-04 3.687504e-04 8.749717e-03)	(-5.310595e-07 1.617523e-05 -3.003852e-03)	(6.914782e-05 8.201122e-06 3.859179e-02)	(6.850288e-06 2.716209e-06 3.866287e-02)	(6.229753e-05 5.484913e-06 -7.107874e-05)
0.055         	(1.282490e-04 2.723821e-05 -8.203297e-01)	(1.281383e-04 2.716359e-05 -8.203173e-01)	(1.107296e-07 7.461977e-08 -1.237068e-05)	(-1.766328e-04 3.849256e-04 5.745865e-03)	(-1.761017e-04 3.687504e-04 8.749717e-03)	(-5.310595e-07 1.617523e-05 -3.003852e-03)	(6.914782e-05 8.201122e-06 3.859179e-02)	(6.850288e-06 2.716209e-06 3.866287e-02)	(6.229753e-05 5.484913e-06 -7.107874e-05)
0.06          	(1.195856e-04 -2.658946e-04 -8.203429e-01)	(1.194857e-04 -2.658980e-04 -8.203304e-01)	(9.985827e-08 3.413408e-09 -1.246943e-05)	(1.490053e-04 -3.758048e-04 5.327362e-03)	(1.325157e-04 -3.861492e-04 8.512370e-03)	(1.648960e-05 1.034436e-05 -3.185008e-03)	(7.196660e-05 -6.948098e-06 3.864277e-02)	(4.112625e-06 -5.086929e-06 3.866492e-02)	(6.785398e-05 -1.861169e-06 -2.214760e-05)
0.06          	(1.195856e-04 -2.658946e-04 -8.203429e-01)	(1.194857e-04 -2.658980e-04 -8.203304e-01)	(9.985827e-08 3.413408e-09 -1.246943e-05)	(1.490053e-04 -3.758048e-04 5.327362e-03)	(1.325157e-04 -3.861492e-04 8.512370e-03)	(1.648960e-05 1.034436e-05 -3.185008e-03)	(7.196660e-05 -6.948098e-06 3.864277e-02)	(4.112625e-06 -5.086929e-06 3.866492e-02)	(6.785398e-05 -1.861169e-06 -2.214760e-05)
0.065         	(-3.051733e-05 3.174546e-04 -8.203458e-01)	(-3.056905e-05 3.172991e-04 -8.203379e-01)	(5.171401e-08 1.555034e-07 -7.876682e-06)	(9.291402e-05 -4.947307e-05 5.492946e-03)	(7.426140e-05 -7.085059e-05 8.454872e-03)	(1.865262e-05 2.137752e-05 -2.961926e-03)	(7.039813e-05 -8.245593e-07 3.867228e-02)	(1.962470e-06 3.998896e-07 3.866813e-02)	(6.843566e-05 -1.224449e-06 4.158780e-06)
0.065         	(-3.051733e-05 3.174546e-04 -8.203458e-01)	(-3.056905e-05 3.172991e-04 -8.203379e-01)	(5.171401e-08 1.555034e-07 -7.876682e-06)	(9.291402e-05 -4.947307e-05 5.492946e-03)	(7.426140e-05 -7.085059e-05 8.454872e-03)	(1.865262e-05 2.137752e-05 -2.961926e-03)	(7.039813e-05 -8.245593e-07 3.867228e-02)	(1.962470e-06 3.998896e-07 3.866813e-02)	(6.843566e-05 -1.224449e-06 4.158780e-06)
0.07          	(3.575957e-05 -1.660342e-04 -8.203340e-01)	(3.568447e-05 -1.660424e-04 -8.203291e-01)	(7.509514e-08 8.232319e-09 -4.875315e-06)	(-2.690697e-05 -3.062539e-04 6.534435e-03)	(-2.984259e-05 -2.662652e-04 8.137817e-03)	(2.935627e-06 -3.998869e-05 -1.603382e-03)	(7.461619e-05 7.287149e-06 3.870308e-02)	(3.026871e-06 3.484179e-06 3.866636e-02)	(7.158932e-05 3.802970e-06 3.672550e-05)
0.07          	(3.575957e-05 -1.660342e-04 -8.203340e-01)	(3.568447e-05 -1.660424e-04 -8.203291e-01)	(7.509514e-08 8.232319e-09 -4.875315e-06)	(-2.690697e-05 -3.062539e-04 6.534435e-03)	(-2.984259e-05 -2.662652e-04 8.137817e-03)	(2.935627e-06 -3.998869e-05 -1.603382e-03)	(7.461619e-05 7.287149e-06 3.870308e-02)	(3.026871e-06 3.484179e-06 3.866636e-02)	(7.158932e-05 3.802970e-06 3.672550e-05)
0.075         	(6.135548e-05 7.948559e-05 -8.203297e-01)	(6.127555e-05 7.942630e-05 -8.203233e-01)	(7.993266e-08 5.928956e-08 -6.404618e-06)	(-2.092771e-04 5.347017e-04 6.070210e-03)	(-2.105013e-04 5.377898e-04 8.644846e-03)	(1.224200e-06 -3.088047e-06 -2.574636e-03)	(9.032429e-05 -1.475265e-06 3.869828e-02)	(6.942991e-06 -2.088497e-06 3.866202e-02)	(8.338130e-05 6.132327e-07 3.625735e-05)
0.075         	(6.135548e-05 7.948559e-05 -8.203297e-01)	(6.127555e-05 7.942630e-05 -8.203233e-01)	(7.993266e-08 5.928956e-08 -6.404618e-06)	(-2.092771e-04 5.347017e-04 6.070210e-03)	(-2.105013e-04 5.377898e-04 8.644846e-03)	(1.224200e-06 -3.088047e-06 -2.574636e-03)	(9.032429e-05 -1.475265e-06 3.869828e-02)	(6.942991e-06 -2.088497e-06 3.866202e-02)	(8.338130e-05 6.132327e-07 3.625735e-05)
0.08          	(1.511539e-04 -2.586211e-04 -8.203378e-01)	(1.509935e-04 -2.585803e-04 -8.203295e-01)	(1.604058e-07 -4.079788e-08 -8.284853e-06)	(1.914911e-04 -3.706485e-04 5.677380e-03)	(1.694722e-04 -3.572749e-04 8.491105e-03)	(2.201892e-05 -1.337365e-05 -2.813725e-03)	(9.505721e-05 -1.557043e-06 3.869074e-02)	(5.010942e-06 -9.317321e-07 3.865977e-02)	(9.004627e-05 -6.253108e-07 3.097089e-05)
0.08          	(1.511539e-04 -2.586211e-04 -8.203378e-01)	(1.509935e-04 -2.585803e-04 -8.203295e-01)	(1.604058e-07 -4.079788e-08 -8.284853e-06)	(1.914911e-04 -3.706485e-04 5.677380e-03)	(1.694722e-04 -3.572749e-04 8.491105e-03)	(2.201892e-05 -1.337365e-05 -2.813725e-03)	(9.505721e-05 -1.557043e-06 3.869074e-02)	(5.010942e-06 -9.317321e-07 3.865977e-02)	(9.004627e-05 -6.253108e-07 3.097089e-05)
0.085         	(9.936234e-05 4.513171e-05 -8.203351e-01)	(9.917197e-05 4.518234e-05 -8.203275e-01)	(1.903632e-07 -5.063552e-08 -7.593807e-06)	(1.201059e-04 -3.502475e-04 5.713840e-03)	(9.251569e-05 -3.367427e-04 8.395859e-03)	(2.759023e-05 -1.350475e-05 -2.682019e-03)	(9.635040e-05 2.601712e-06 3.866251e-02)	(3.389382e-06 1.288830e-06 3.866341e-02)	(9.296102e-05 1.312882e-06 -8.949780e-07)
0.085         	(9.936234e-05 4.513171e-05 -8.203351e-01)	(9.917197e-05 4.518234e-05 -8.203275e-01)	(1.903632e-07 -5.063552e-08 -7.593807e-06)	(1.201059e-04 -3.502475e-04 5.713840e-03)	(9.251569e-05 -3.367427e-04 8.395859e-03)	(2.759023e-05 -1.350475e-05 -2.682019e-03)	(9.635040e-05 2.601712e-06 3.866251e-02)	(3.389382e-06 1.288830e-06 3.866341e-02)	(9.296102e-05 1.312882e-06 -8.949780e-07)
0.09          	(7.340233e-05 3.479399e-05 -8.203316e-01)	(7.319771e-05 3.481715e-05 -8.203252e-01)	(2.046219e-07 -2.315394e-08 -6.349634e-06)	(1.049635e-04 -1.869498e-04 6.836341e-03)	(7.231826e-05 -1.109117e-04 8.061563e-03)	(3.264521e-05 -7.603810e-05 -1.225222e-03)	(1.061295e-04 2.144947e-06 3.863945e-02)	(5.559498e-06 3.411310e-07 3.866192e-02)	(1.005700e-04 1.803816e-06 -2.246720e-05)
0.09          	(7.340233e-05 3.479399e-05 -8.203316e-01)	(7.319771e-05 3.481715e-05 -8.203252e-01)	(2.046219e-07 -2.315394e-08 -6.349634e-06)	(1.049635e-04 -1.869498e-04 6.836341e-03)	(7.231826e-05 -1.109117e-04 8.061563e-03)	(3.264521e-05 -7.603810e-05 -1.225222e-03)	(1.061295e-04 2.144947e-06 3.863945e-02)	(5.559498e-06 3.411310e-07 3.866192e-02)	(1.005700e-04 1.803816e-06 -2.246720e-05)
0.09          	(7.340233e-05 3.479399e-05 -8.203316e-01)	(7.319771e-05 3.481715e-05 -8.203252e-01)	(2.046219e-07 -2.315394e-08 -6.349634e-06)	(1.049635e-04 -1.869498e-04 6.836341e-03)	(7.231826e-05 -1.109117e-04 8.061563e-03)	(3.264521e-05 -7.603810e-05 -1.225222e-03)	(1.061295e-04 2.144947e-06 3.863945e-02)	(5.559498e-06 3.411310e-07 3.866192e-02)	(1.005700e-04 1.803816e-06 -2.246720e-05)
0.095         	(1.086214e-05 9.750157e-05 -8.203260e-01)	(1.068560e-05 9.749475e-05 -8.203186e-01)	(1.765430e-07 6.818888e-09 -7.449582e-06)	(-1.516841e-04 3.317041e-04 6.461484e-03)	(-1.598769e-04 3.492474e-04 8.612898e-03)	(8.192776e-06 -1.754332e-05 -2.151414e-03)	(1.126207e-04 -1.872104e-07 3.859574e-02)	(5.385506e-06 -8.387565e-07 3.866077e-02)	(1.072352e-04 6.515461e-07 -6.503460e-05)
0.095         	(1.086214e-05 9.750157e-05 -8.203260e-01)	(1.068560e-05 9.749475e-05 -8.203186e-01)	(1.765430e-07 6.818888e-09 -7.449582e-06)	(-1.516841e-04 3.317041e-04 6.461484e-03)	(-1.598769e-04 3.492474e-04 8.612898e-03)	(8.192776e-06 -1.754332e-05 -2.151414e-03)	(1.126207e-04 -1.872104e-07 3.859574e-02)	(5.385506e-06 -8.387565e-07 3.866077e-02)	(1.072352e-04 6.515461e-07 -6.503460e-05)
0.095         	(1.086214e-05 9.750157e-05 -8.203260e-01)	(1.068560e-05 9.749475e-05 -8.203186e-01)	(1.765430e-07 6.818888e-09 -7.449582e-06)	(-1.516841e-04 3.317041e-04 6.461484e-03)	(-1.598769e-04 3.492474e-04 8.612898e-03)	(8.192776e-06 -1.754332e-05 -2.151414e-03)	(1.126207e-04 -1.872104e-07 3.859574e-02)	(5.385506e-06 -8.387565e-07 3.866077e-02)	(1.072352e-04 6.515461e-07 -6.503460e-05)
0.1           	(6.384227e-05 -7.187873e-05 -8.203387e-01)	(6.369096e-05 -7.189604e-05 -8.203276e-01)	(1.513186e-07 1.731051e-08 -1.107304e-05)	(1.252970e-04 -1.437148e-04 5.969976e-03)	(1.177225e-04 -1.344351e-04 8.424463e-03)	(7.574470e-06 -9.279658e-06 -2.454487e-03)	(1.179948e-04 3.583912e-07 3.854979e-02)	(5.028591e-06 -1.765855e-07 3.865811e-02)	(1.129662e-04 5.349767e-07 -1.083175e-04)
0.1           	(6.384227e-05 -7.187873e-05 -8.203387e-01)	(6.369096e-05 -7.189604e-05 -8.203276e-01)	(1.513186e-07 1.731051e-08 -1.107304e-05)	(1.252970e-04 -1.437148e-04 5.969976e-03)	(1.177225e-04 -1.344351e-04 8.424463e-03)	(7.574470e-06 -9.279658e-06 -2.454487e-03)	(1.179948e-04 3.583912e-07 3.854979e-02)	(5.028591e-06 -1.765855e-07 3.865811e-02)	(1.129662e-04 5.349767e-07 -1.083175e-04)
0.1           	(6.384227e-05 -7.187873e-05 -8.203387e-01)	(6.369096e-05 -7.189604e-05 -8.203276e-01)	(1.513186e-07 1.731051e-08 -1.107304e-05)	(1.252970e-04 -1.437148e-04 5.969976e-03)	(1.177225e-04 -1.344351e-04 8.424463e-03)	(7.574470e-06 -9.279658e-06 -2.454487e-03)	(1.179948e-04 3.583912e-07 3.854979e-02)	(5.028591e-06 -1.765855e-07 3.865811e-02)	(1.129662e-04 5.349767e-07 -1.083175e-04)
0.105         	(8.572433e-05 3.216624e-05 -8.203347e-01)	(8.555146e-05 3.215796e-05 -8.203199e-01)	(1.728689e-07 8.278617e-09 -1.481293e-05)	(3.066692e-04 -7.191259e-04 6.472079e-03)	(2.672802e-04 -6.905047e-04 8.321131e-03)	(3.938897e-05 -2.862123e-05 -1.849052e-03)	(1.226788e-04 9.713848e-07 3.849292e-02)	(4.769285e-06 2.045780e-07 3.865804e-02)	(1.179095e-04 7.668068e-07 -1.651225e-04)
0.105         	(8.572433e-05 3.216624e-05 -8.203347e-01)	(8.555146e-05 3.215796e-05 -8.203199e-01)	(1.728689e-07 8.278617e-09 -1.481293e-05)	(3.066692e-04 -7.191259e-04 6.472079e-03)	(2.672802e-04 -6.905047e-04 8.321131e-03)	(3.938897e-05 -2.862123e-05 -1.849052e-03)	(1.226788e-04 9.713848e-07 3.849292e-02)	(4.769285e-06 2.045780e-07 3.865804e-02)	(1.179095e-04 7.668068e-07 -1.651225e-04)
0.105         	(8.572433e-05 3.216624e-05 -8.203347e-01)	(8.555146e-05 3.215796e-05 -8.203199e-01)	(1.728689e-07 8.278617e-09 -1.481293e-05)	(3.066692e-04 -7.191259e-04 6.472079e-03)	(2.672802e-04 -6.905047e-04 8.321131e-03)	(3.938897e-05 -2.862123e-05 -1.849052e-03)	(1.226788e-04 9.713848e-07 3.849292e-02)	(4.769285e-06 2.045780e-07 3.865804e-02)	(1.179095e-04 7.668068e-07 -1.651225e-04)
0.11          	(2.094353e-05 -4.988933e-05 -8.203339e-01)	(2.076801e-05 -4.987759e-05 -8.203185e-01)	(1.755140e-07 -1.173397e-08 -1.546469e-05)	(-1.627552e-04 -1.026524e-05 7.320279e-03)	(-2.203025e-04 1.519165e-05 7.986828e-03)	(5.754729e-05 -2.545689e-05 -6.665488e-04)	(1.337429e-04 -2.877298e-06 3.844467e-02)	(6.704125e-06 -1.449530e-06 3.865870e-02)	(1.270388e-04 -1.427767e-06 -2.140324e-04)
0.11          	(2.094353e-05 -4.988933e-05 -8.203339e-01)	(2.076801e-05 -4.987759e-05 -8.203185e-01)	(1.755140e-07 -1.173397e-08 -1.546469e-05)	(-1.627552e-04 -1.026524e-05 7.320279e-03)	(-2.203025e-04 1.519165e-05 7.986828e-03)	(5.754729e-05 -2.545689e-05 -6.665488e-04)	(1.337429e-04 -2.877298e-06 3.844467e-02)	(6.704125e-06 -1.449530e-06 3.865870e-02)	(1.270388e-04 -1.427767e-06 -2.140324e-04)
0.115         	(2.284257e-04 1.235020e-04 -8.203313e-01)	(2.281939e-04 1.234492e-04 -8.203177e-01)	(2.317541e-07 5.279701e-08 -1.362391e-05)	(1.121484e-04 3.627282e-04 7.325145e-03)	(4.123524e-05 3.802507e-04 8.483768e-03)	(7.091320e-05 -1.752247e-05 -1.158623e-03)	(1.341921e-04 2.343957e-06 3.840504e-02)	(4.109074e-06 1.407902e-06 3.865965e-02)	(1.300831e-04 9.360545e-07 -2.546152e-04)
0.115         	(2.284257e-04 1.235020e-04 -8.203313e-01)	(2.281939e-04 1.234492e-04 -8.203177e-01)	(2.317541e-07 5.279701e-08 -1.362391e-05)	(1.121484e-04 3.627282e-04 7.325145e-03)	(4.123524e-05 3.802507e-04 8.483768e-03)	(7.091320e-05 -1.752247e-05 -1.158623e-03)	(1.341921e-04 2.343957e-06 3.840504e-02)	(4.109074e-06 1.407902e-06 3.865965e-02)	(1.300831e-04 9.360545e-07 -2.546152e-04)
0.12          	(8.209223e-05 -4.298849e-05 -8.203327e-01)	(8.185174e-05 -4.304490e-05 -8.203191e-01)	(2.404901e-07 5.641001e-08 -1.355485e-05)	(-8.870647e-05 5.180909e-04 6.806559e-03)	(-1.640560e-04 4.998961e-04 8.386831e-03)	(7.534957e-05 1.819479e-05 -1.580271e-03)	(1.423973e-04 -1.320467e-06 3.838976e-02)	(5.753770e-06 -1.056795e-06 3.865690e-02)	(1.366435e-04 -2.636721e-07 -2.671435e-04)
0.12          	(8.209223e-05 -4.298849e-05 -8.203327e-01)	(8.185174e-05 -4.304490e-05 -8.203191e-01)	(2.404901e-07 5.641001e-08 -1.355485e-05)	(-8.870647e-05 5.180909e-04 6.806559e-03)	(-1.640560e-04 4.998961e-04 8.386831e-03)	(7.534957e-05 1.819479e-05 -1.580271e-03)	(1.423973e-04 -1.320467e-06 3.838976e-02)	(5.753770e-06 -1.056795e-06 3.865690e-02)	(1.366435e-04 -2.636721e-07 -2.671435e-04)
0.125         	(2.339693e-04 3.212821e-06 -8.203379e-01)	(2.336888e-04 3.199816e-06 -8.203210e-01)	(2.804674e-07 1.300543e-08 -1.685366e-05)	(5.611200e-04 -1.078276e-04 6.887519e-03)	(4.583300e-04 -1.103346e-04 8.408690e-03)	(1.027900e-04 2.507025e-06 -1.521171e-03)	(1.425084e-04 5.232052e-07 3.837109e-02)	(3.801090e-06 2.515312e-07 3.865823e-02)	(1.387073e-04 2.716740e-07 -2.871411e-04)
0.125         	(2.339693e-04 3.212821e-06 -8.203379e-01)	(2.336888e-04 3.199816e-06 -8.203210e-01)	(2.804674e-07 1.300543e-08 -1.685366e-05)	(5.611200e-04 -1.078276e-04 6.887519e-03)	(4.583300e-04 -1.103346e-04 8.408690e-03)	(1.027900e-04 2.507025e-06 -1.521171e-03)	(1.425084e-04 5.232052e-07 3.837109e-02)	(3.801090e-06 2.515312e-07 3.865823e-02)	(1.387073e-04 2.716740e-07 -2.871411e-04)
0.13          	(8.259750e-05 -1.235189e-04 -8.203381e-01)	(8.228932e-05 -1.234505e-04 -8.203188e-01)	(3.081762e-07 -6.837998e-08 -1.929920e-05)	(-5.827098e-05 -3.025604e-04 7.461165e-03)	(-2.146286e-04 -2.559117e-04 7.965279e-03)	(1.563576e-04 -4.664872e-05 -5.041140e-04)	(1.582063e-04 -1.864745e-06 3.837060e-02)	(8.014260e-06 -8.638604e-07 3.865934e-02)	(1.501920e-04 -1.000885e-06 -2.887407e-04)
0.13          	(8.259750e-05 -1.235189e-04 -8.203381e-01)	(8.228932e-05 -1.234505e-04 -8.203188e-01)	(3.081762e-07 -6.837998e-08 -1.929920e-05)	(-5.827098e-05 -3.025604e-04 7.461165e-03)	(-2.146286e-04 -2.559117e-04 7.965279e-03)	(1.563576e-04 -4.664872e-05 -5.041140e-04)	(1.582063e-04 -1.864745e-06 3.837060e-02)	(8.014260e-06 -8.638604e-07 3.865934e-02)	(1.501920e-04 -1.000885e-06 -2.887407e-04)
0.135         	(1.837140e-04 -1.691192e-04 -8.203277e-01)	(1.833493e-04 -1.689378e-04 -8.203099e-01)	(3.647164e-07 -1.814630e-07 -1.779056e-05)	(2.354855e-04 -2.123828e-04 7.226793e-03)	(1.068037e-04 -1.861901e-04 8.500954e-03)	(1.286819e-04 -2.619269e-05 -1.274162e-03)	(1.628916e-04 9.982835e-07 3.840323e-02)	(6.105430e-06 9.319904e-07 3.866179e-02)	(1.567862e-04 6.629311e-08 -2.585636e-04)
0.135         	(1.837140e-04 -1.691192e-04 -8.203277e-01)	(1.833493e-04 -1.689378e-04 -8.203099e-01)	(3.647164e-07 -1.814630e-07 -1.779056e-05)	(2.354855e-04 -2.123828e-04 7.226793e-03)	(1.068037e-04 -1.861901e-04 8.500954e-03)	(1.286819e-04 -2.619269e-05 -1.274162e-03)	(1.628916e-04 9.982835e-07 3.840323e-02)	(6.105430e-06 9.319904e-07 3.866179e-02)	(1.567862e-04 6.629311e-08 -2.585636e-04)
0.14          	(3.055952e-04 -8.091499e-05 -8.203340e-01)	(3.051246e-04 -8.070521e-05 -8.203193e-01)	(4.705236e-07 -2.097800e-07 -1.469802e-05)	(-8.878663e-06 -1.876911e-05 6.895055e-03)	(-1.697248e-04 5.832834e-05 8.388665e-03)	(1.608462e-04 -7.709745e-05 -1.493610e-03)	(1.683951e-04 4.781187e-07 3.845609e-02)	(5.803100e-06 1.114223e-07 3.866152e-02)	(1.625920e-04 3.666963e-07 -2.054352e-04)
0.14          	(3.055952e-04 -8.091499e-05 -8.203340e-01)	(3.051246e-04 -8.070521e-05 -8.203193e-01)	(4.705236e-07 -2.097800e-07 -1.469802e-05)	(-8.878663e-06 -1.876911e-05 6.895055e-03)	(-1.697248e-04 5.832834e-05 8.388665e-03)	(1.608462e-04 -7.709745e-05 -1.493610e-03)	(1.683951e-04 4.781187e-07 3.845609e-02)	(5.803100e-06 1.114223e-07 3.866152e-02)	(1.625920e-04 3.666963e-07 -2.054352e-04)
0.145         	(1.945064e-04 7.146003e-05 -8.203294e-01)	(1.939893e-04 7.162453e-05 -8.203156e-01)	(5.171378e-07 -1.645071e-07 -1.379728e-05)	(3.652594e-04 -5.624772e-04 6.941076e-03)	(2.015953e-04 -5.074843e-04 8.422862e-03)	(1.636641e-04 -5.499290e-05 -1.481786e-03)	(1.853378e-04 6.369656e-07 3.849874e-02)	(9.433539e-06 -8.819084e-09 3.866078e-02)	(1.759042e-04 6.457847e-07 -1.620368e-04)
0.145         	(1.945064e-04 7.146003e-05 -8.203294e-01)	(1.939893e-04 7.162453e-05 -8.203156e-01)	(5.171378e-07 -1.645071e-07 -1.379728e-05)	(3.652594e-04 -5.624772e-04 6.941076e-03)	(2.015953e-04 -5.074843e-04 8.422862e-03)	(1.636641e-04 -5.499290e-05 -1.481786e-03)	(1.853378e-04 6.369656e-07 3.849874e-02)	(9.433539e-06 -8.819084e-09 3.866078e-02)	(1.759042e-04 6.457847e-07 -1.620368e-04)
0.15          	(2.110853e-04 1.758864e-04 -8.203266e-01)	(2.105215e-04 1.759248e-04 -8.203120e-01)	(5.637550e-07 -3.843292e-08 -1.454423e-05)	(2.831949e-05 -6.296289e-04 7.452744e-03)	(-1.494727e-04 -5.238477e-04 8.082552e-03)	(1.777922e-04 -1.057812e-04 -6.298078e-04)	(1.878659e-04 2.021757e-06 3.853812e-02)	(6.198324e-06 5.258558e-07 3.866154e-02)	(1.816676e-04 1.495901e-06 -1.234174e-04)
0.15          	(2.110853e-04 1.758864e-04 -8.203266e-01)	(2.105215e-04 1.759248e-04 -8.203120e-01)	(5.637550e-07 -3.843292e-08 -1.454423e-05)	(2.831949e-05 -6.296289e-04 7.452744e-03)	(-1.494727e-04 -5.238477e-04 8.082552e-03)	(1.777922e-04 -1.057812e-04 -6.298078e-04)	(1.878659e-04 2.021757e-06 3.853812e-02)	(6.198324e-06 5.258558e-07 3.866154e-02)	(1.816676e-04 1.495901e-06 -1.234174e-04)
0.155         	(1.847291e-04 1.004466e-04 -8.203246e-01)	(1.841605e-04 1.004216e-04 -8.203113e-01)	(5.685273e-07 2.497164e-08 -1.332300e-05)	(6.140748e-04 -4.890671e-04 7.437043e-03)	(4.770789e-04 -4.021301e-04 8.441106e-03)	(1.369959e-04 -8.693707e-05 -1.004063e-03)	(1.936520e-04 6.678470e-07 3.859005e-02)	(6.285946e-06 -2.470583e-07 3.866104e-02)	(1.873660e-04 9.149053e-07 -7.099286e-05)
0.155         	(1.847291e-04 1.004466e-04 -8.203246e-01)	(1.841605e-04 1.004216e-04 -8.203113e-01)	(5.685273e-07 2.497164e-08 -1.332300e-05)	(6.140748e-04 -4.890671e-04 7.437043e-03)	(4.770789e-04 -4.021301e-04 8.441106e-03)	(1.369959e-04 -8.693707e-05 -1.004063e-03)	(1.936520e-04 6.678470e-07 3.859005e-02)	(6.285946e-06 -2.470583e-07 3.866104e-02)	(1.873660e-04 9.149053e-07 -7.099286e-05)
0.16          	(1.875358e-04 -1.452949e-06 -8.203220e-01)	(1.869435e-04 -1.499382e-06 -8.203129e-01)	(5.922858e-07 4.643303e-08 -9.056522e-06)	(-1.360208e-04 5.276852e-05 7.236995e-03)	(-2.995253e-04 1.214294e-04 8.393792e-03)	(1.635045e-04 -6.866084e-05 -1.156797e-03)	(2.062080e-04 2.545482e-07 3.865780e-02)	(8.451852e-06 -9.056394e-08 3.866241e-02)	(1.977562e-04 3.451122e-07 -4.600886e-06)
0.16          	(1.875358e-04 -1.452949e-06 -8.203220e-01)	(1.869435e-04 -1.499382e-06 -8.203129e-01)	(5.922858e-07 4.643303e-08 -9.056522e-06)	(-1.360208e-04 5.276852e-05 7.236995e-03)	(-2.995253e-04 1.214294e-04 8.393792e-03)	(1.635045e-04 -6.866084e-05 -1.156797e-03)	(2.062080e-04 2.545482e-07 3.865780e-02)	(8.451852e-06 -9.056394e-08 3.866241e-02)	(1.977562e-04 3.451122e-07 -4.600886e-06)
0.165         	(2.579455e-04 2.878385e-05 -8.203183e-01)	(2.572959e-04 2.873521e-05 -8.203123e-01)	(6.495768e-07 4.863378e-08 -5.923898e-06)	(5.294647e-04 -5.684541e-05 7.168304e-03)	(3.615574e-04 -6.183503e-06 8.422159e-03)	(1.679072e-04 -5.066191e-05 -1.253855e-03)	(2.211904e-04 2.456268e-06 3.871573e-02)	(1.006370e-05 9.466971e-07 3.866367e-02)	(2.111267e-04 1.509571e-06 5.205765e-05)
0.165         	(2.579455e-04 2.878385e-05 -8.203183e-01)	(2.572959e-04 2.873521e-05 -8.203123e-01)	(6.495768e-07 4.863378e-08 -5.923898e-06)	(5.294647e-04 -5.684541e-05 7.168304e-03)	(3.615574e-04 -6.183503e-06 8.422159e-03)	(1.679072e-04 -5.066191e-05 -1.253855e-03)	(2.211904e-04 2.456268e-06 3.871573e-02)	(1.006370e-05 9.466971e-07 3.866367e-02)	(2.111267e-04 1.509571e-06 5.205765e-05)
0.17          	(1.986386e-04 5.262670e-05 -8.203193e-01)	(1.979769e-04 5.255054e-05 -8.203124e-01)	(6.616692e-07 7.616766e-08 -6.825239e-06)	(1.239980e-05 -2.984198e-04 7.842358e-03)	(-1.389043e-04 -2.275683e-04 8.021030e-03)	(1.513041e-04 -7.085145e-05 -1.786721e-04)	(2.242955e-04 -1.209490e-06 3.875013e-02)	(7.032888e-06 -1.041441e-06 3.866223e-02)	(2.172627e-04 -1.680493e-07 8.790845e-05)
0.17          	(1.986386e-04 5.262670e-05 -8.203193e-01)	(1.979769e-04 5.255054e-05 -8.203124e-01)	(6.616692e-07 7.616766e-08 -6.825239e-06)	(1.239980e-05 -2.984198e-04 7.842358e-03)	(-1.389043e-04 -2.275683e-04 8.021030e-03)	(1.513041e-04 -7.085145e-05 -1.786721e-04)	(2.242955e-04 -1.209490e-06 3.875013e-02)	(7.032888e-06 -1.041441e-06 3.866223e-02)	(2.172627e-04 -1.680493e-07 8.790845e-05)