# Moment bins 
# bins        : 3
# start       : 4.262203e-03
# end         : 5.000496e-01
# delta       : 1.652625e-01
# direction   : (0.000000e+00 0.000000e+00 1.000000e+00)
# x co-ords  :	0.000000e+00	0.000000e+00	0.000000e+00
# y co-ords  :	0.000000e+00	0.000000e+00	0.000000e+00
# z co-ords  :	1.695247e-01	3.347871e-01	5.000496e-01
#
# Time        	0:(total_x total_y total_z)	0:(pressure_x pressure_y pressure_z)	0:(viscous_x viscous_y viscous_z)	1:(total_x total_y total_z)	1:(pressure_x pressure_y pressure_z)	1:(viscous_x viscous_y viscous_z)	2:(total_x total_y total_z)	2:(pressure_x pressure_y pressure_z)	2:(viscous_x viscous_y viscous_z)
0             	(4.272031e-09 2.560283e-07 6.191599e-12)	(4.272031e-09 2.560283e-07 6.191599e-12)	(0.000000e+00 0.000000e+00 0.000000e+00)	(1.148416e-08 -9.871816e-06 5.709160e-12)	(1.148416e-08 -9.871816e-06 5.709160e-12)	(0.000000e+00 0.000000e+00 0.000000e+00)	(-4.780758e-12 -4.080289e-10 1.433497e-18)	(-4.780758e-12 -4.080289e-10 1.433497e-18)	(0.000000e+00 0.000000e+00 0.000000e+00)
0             	(4.272031e-09 2.560283e-07 6.191599e-12)	(4.272031e-09 2.560283e-07 6.191599e-12)	(0.000000e+00 0.000000e+00 0.000000e+00)	(1.148416e-08 -9.871816e-06 5.709160e-12)	(1.148416e-08 -9.871816e-06 5.709160e-12)	(0.000000e+00 0.000000e+00 0.000000e+00)	(-4.780758e-12 -4.080289e-10 1.433497e-18)	(-4.780758e-12 -4.080289e-10 1.433497e-18)	(0.000000e+00 0.000000e+00 0.000000e+00)
0.0025        	(7.536539e-07 -2.582433e-05 1.869431e-06)	(7.536406e-07 -2.582081e-05 1.811975e-06)	(1.335378e-11 -3.523204e-09 5.745627e-08)	(4.218881e-08 -1.351413e-06 1.235817e-06)	(4.247647e-08 -1.369436e-06 1.143322e-06)	(-2.876577e-10 1.802276e-08 9.249586e-08)	(-9.329646e-09 5.424835e-07 1.349662e-07)	(-8.924337e-09 4.152615e-07 2.158454e-09)	(-4.053090e-10 1.272220e-07 1.328077e-07)
0.0025        	(7.536539e-07 -2.582433e-05 1.869431e-06)	(7.536406e-07 -2.582081e-05 1.811975e-06)	(1.335378e-11 -3.523204e-09 5.745627e-08)	(4.218881e-08 -1.351413e-06 1.235817e-06)	(4.247647e-08 -1.369436e-06 1.143322e-06)	(-2.876577e-10 1.802276e-08 9.249586e-08)	(-9.329646e-09 5.424835e-07 1.349662e-07)	(-8.924337e-09 4.152615e-07 2.158454e-09)	(-4.053090e-10 1.272220e-07 1.328077e-07)
0.005         	(-4.308588e-06 -2.486524e-05 -1.355858e-07)	(-4.306325e-06 -2.485256e-05 -1.072842e-07)	(-2.262910e-09 -1.268590e-08 -2.830160e-08)	(-2.372580e-07 -1.587626e-06 -2.860558e-07)	(-4.439418e-07 -6.520893e-07 -6.460615e-08)	(2.066838e-07 -9.355365e-07 -2.214497e-07)	(-4.425228e-07 4.079925e-07 -1.361050e-07)	(-2.321862e-07 1.367374e-07 -2.521758e-11)	(-2.103367e-07 2.712551e-07 -1.360798e-07)
0.005         	(-4.308588e-06 -2.486524e-05 -1.355858e-07)	(-4.306325e-06 -2.485256e-05 -1.072842e-07)	(-2.262910e-09 -1.268590e-08 -2.830160e-08)	(-2.372580e-07 -1.587626e-06 -2.860558e-07)	(-4.439418e-07 -6.520893e-07 -6.460615e-08)	(2.066838e-07 -9.355365e-07 -2.214497e-07)	(-4.425228e-07 4.079925e-07 -1.361050e-07)	(-2.321862e-07 1.367374e-07 -2.521758e-11)	(-2.103367e-07 2.712551e-07 -1.360798e-07)
0.0075        	(3.710926e-06 -2.647828e-05 1.003095e-07)	(3.709859e-06 -2.646078e-05 7.741881e-08)	(1.066844e-09 -1.750046e-08 2.289073e-08)	(6.040735e-07 -5.013094e-07 1.047295e-07)	(5.018340e-07 -1.367666e-06 6.734329e-08)	(1.022395e-07 8.663569e-07 3.738624e-08)	(-3.339692e-07 2.610828e-06 1.336276e-07)	(-6.702748e-08 9.729641e-07 8.909410e-11)	(-2.669418e-07 1.637864e-06 1.335385e-07)
0.0075        	(3.710926e-06 -2.647828e-05 1.003095e-07)	(3.709859e-06 -2.646078e-05 7.741881e-08)	(1.066844e-09 -1.750046e-08 2.289073e-08)	(6.040735e-07 -5.013094e-07 1.047295e-07)	(5.018340e-07 -1.367666e-06 6.734329e-08)	(1.022395e-07 8.663569e-07 3.738624e-08)	(-3.339692e-07 2.610828e-06 1.336276e-07)	(-6.702748e-08 9.729641e-07 8.909410e-11)	(-2.669418e-07 1.637864e-06 1.335385e-07)
0.01          	(8.016121e-06 -2.514895e-05 -3.845772e-08)	(8.014113e-06 -2.513353e-05 -3.319615e-08)	(2.007705e-09 -1.541729e-08 -5.261571e-09)	(4.426725e-07 -1.894430e-06 7.418161e-08)	(9.424652e-07 -2.292297e-06 -4.019565e-08)	(-4.997928e-07 3.978671e-07 1.143773e-07)	(-5.132555e-08 1.981187e-06 -1.458455e-08)	(1.405480e-07 1.785727e-07 -4.965726e-10)	(-1.918735e-07 1.802614e-06 -1.408798e-08)
0.01          	(8.016121e-06 -2.514895e-05 -3.845772e-08)	(8.014113e-06 -2.513353e-05 -3.319615e-08)	(2.007705e-09 -1.541729e-08 -5.261571e-09)	(4.426725e-07 -1.894430e-06 7.418161e-08)	(9.424652e-07 -2.292297e-06 -4.019565e-08)	(-4.997928e-07 3.978671e-07 1.143773e-07)	(-5.132555e-08 1.981187e-06 -1.458455e-08)	(1.405480e-07 1.785727e-07 -4.965726e-10)	(-1.918735e-07 1.802614e-06 -1.408798e-08)
0.0125        	(-7.719146e-06 -1.676484e-05 4.100914e-09)	(-7.717905e-06 -1.675325e-05 1.528293e-09)	(-1.240834e-09 -1.158214e-08 2.572621e-09)	(-8.332496e-07 2.831897e-07 1.956631e-08)	(-9.712878e-07 -5.588703e-07 -3.429104e-09)	(1.380381e-07 8.420600e-07 2.299541e-08)	(2.021428e-07 2.910042e-06 1.793908e-08)	(1.875226e-07 5.018318e-07 5.343592e-10)	(1.462017e-08 2.408211e-06 1.740472e-08)
0.0125        	(-7.719146e-06 -1.676484e-05 4.100914e-09)	(-7.717905e-06 -1.675325e-05 1.528293e-09)	(-1.240834e-09 -1.158214e-08 2.572621e-09)	(-8.332496e-07 2.831897e-07 1.956631e-08)	(-9.712878e-07 -5.588703e-07 -3.429104e-09)	(1.380381e-07 8.420600e-07 2.299541e-08)	(2.021428e-07 2.910042e-06 1.793908e-08)	(1.875226e-07 5.018318e-07 5.343592e-10)	(1.462017e-08 2.408211e-06 1.740472e-08)
0.015         	(4.679801e-06 -1.988682e-05 -2.284699e-08)	(4.677655e-06 -1.987802e-05 -1.726805e-08)	(2.146127e-09 -8.804523e-09 -5.578933e-09)	(4.178417e-07 -1.114262e-06 -5.921246e-08)	(6.055390e-07 -1.524238e-06 -1.451542e-08)	(-1.876973e-07 4.099762e-07 -4.469703e-08)	(-2.149208e-07 3.115961e-06 -3.401913e-08)	(-1.092985e-07 3.530544e-07 -2.040161e-10)	(-1.056223e-07 2.762907e-06 -3.381512e-08)
0.015         	(4.679801e-06 -1.988682e-05 -2.284699e-08)	(4.677655e-06 -1.987802e-05 -1.726805e-08)	(2.146127e-09 -8.804523e-09 -5.578933e-09)	(4.178417e-07 -1.114262e-06 -5.921246e-08)	(6.055390e-07 -1.524238e-06 -1.451542e-08)	(-1.876973e-07 4.099762e-07 -4.469703e-08)	(-2.149208e-07 3.115961e-06 -3.401913e-08)	(-1.092985e-07 3.530544e-07 -2.040161e-10)	(-1.056223e-07 2.762907e-06 -3.381512e-08)
0.0175        	(-6.777820e-06 -1.637180e-05 1.373128e-08)	(-6.775582e-06 -1.636539e-05 1.330993e-08)	(-2.238604e-09 -6.412478e-09 4.213452e-10)	(-2.496795e-07 1.222249e-06 -3.086286e-08)	(-3.715912e-07 3.870295e-07 3.381659e-08)	(1.219116e-07 8.352194e-07 -6.467944e-08)	(1.455788e-07 4.091490e-06 6.030704e-09)	(1.169467e-07 6.107646e-07 1.460268e-10)	(2.863206e-08 3.480725e-06 5.884677e-09)
0.0175        	(-6.777820e-06 -1.637180e-05 1.373128e-08)	(-6.775582e-06 -1.636539e-05 1.330993e-08)	(-2.238604e-09 -6.412478e-09 4.213452e-10)	(-2.496795e-07 1.222249e-06 -3.086286e-08)	(-3.715912e-07 3.870295e-07 3.381659e-08)	(1.219116e-07 8.352194e-07 -6.467944e-08)	(1.455788e-07 4.091490e-06 6.030704e-09)	(1.169467e-07 6.107646e-07 1.460268e-10)	(2.863206e-08 3.480725e-06 5.884677e-09)
0.02          	(6.942525e-06 -2.539638e-05 -1.525509e-08)	(6.940028e-06 -2.538723e-05 -1.195872e-08)	(2.497005e-09 -9.154296e-09 -3.296372e-09)	(6.016300e-07 -1.228030e-06 1.627303e-08)	(5.540210e-07 -2.070425e-06 -3.188356e-08)	(4.760899e-08 8.423957e-07 4.815659e-08)	(1.001255e-07 4.089165e-06 -1.903556e-08)	(3.893312e-08 3.203888e-07 -1.770553e-10)	(6.119239e-08 3.768776e-06 -1.885851e-08)
0.02          	(6.942525e-06 -2.539638e-05 -1.525509e-08)	(6.940028e-06 -2.538723e-05 -1.195872e-08)	(2.497005e-09 -9.154296e-09 -3.296372e-09)	(6.016300e-07 -1.228030e-06 1.627303e-08)	(5.540210e-07 -2.070425e-06 -3.188356e-08)	(4.760899e-08 8.423957e-07 4.815659e-08)	(1.001255e-07 4.089165e-06 -1.903556e-08)	(3.893312e-08 3.203888e-07 -1.770553e-10)	(6.119239e-08 3.768776e-06 -1.885851e-08)
0.0225        	(-8.509965e-06 -1.928293e-05 1.448228e-08)	(-8.506888e-06 -1.927384e-05 1.238944e-08)	(-3.077101e-09 -9.095576e-09 2.092832e-09)	(-9.212788e-07 7.232072e-07 3.930618e-08)	(-9.450640e-07 -2.695714e-07 7.249360e-09)	(2.378515e-08 9.927785e-07 3.205682e-08)	(-7.009062e-08 4.965818e-06 2.655208e-08)	(-6.283987e-08 5.749227e-07 6.346851e-11)	(-7.250751e-09 4.390895e-06 2.648861e-08)
0.0225        	(-8.509965e-06 -1.928293e-05 1.448228e-08)	(-8.506888e-06 -1.927384e-05 1.238944e-08)	(-3.077101e-09 -9.095576e-09 2.092832e-09)	(-9.212788e-07 7.232072e-07 3.930618e-08)	(-9.450640e-07 -2.695714e-07 7.249360e-09)	(2.378515e-08 9.927785e-07 3.205682e-08)	(-7.009062e-08 4.965818e-06 2.655208e-08)	(-6.283987e-08 5.749227e-07 6.346851e-11)	(-7.250751e-09 4.390895e-06 2.648861e-08)
0.025         	(1.022084e-05 -2.587053e-05 -1.727196e-08)	(1.021762e-05 -2.585904e-05 -1.361407e-08)	(3.227587e-09 -1.148326e-08 -3.657888e-09)	(8.840071e-07 -2.868000e-07 -1.735678e-09)	(8.677998e-07 -1.246092e-06 -9.532398e-09)	(1.620731e-08 9.592921e-07 7.796720e-09)	(-1.516673e-08 5.288647e-06 -2.733663e-08)	(-3.986559e-09 4.571384e-07 -5.130515e-11)	(-1.118017e-08 4.831509e-06 -2.728533e-08)
0.025         	(1.022084e-05 -2.587053e-05 -1.727196e-08)	(1.021762e-05 -2.585904e-05 -1.361407e-08)	(3.227587e-09 -1.148326e-08 -3.657888e-09)	(8.840071e-07 -2.868000e-07 -1.735678e-09)	(8.677998e-07 -1.246092e-06 -9.532398e-09)	(1.620731e-08 9.592921e-07 7.796720e-09)	(-1.516673e-08 5.288647e-06 -2.733663e-08)	(-3.986559e-09 4.571384e-07 -5.130515e-11)	(-1.118017e-08 4.831509e-06 -2.728533e-08)
0.0275        	(-1.205930e-05 -1.848052e-05 9.184816e-09)	(-1.205574e-05 -1.847104e-05 8.801658e-09)	(-3.560189e-09 -9.477337e-09 3.831573e-10)	(-8.900705e-07 6.267095e-07 3.607572e-08)	(-9.003826e-07 -3.855208e-07 4.332722e-09)	(1.031214e-08 1.012230e-06 3.174300e-08)	(-2.584099e-08 5.970415e-06 1.253445e-08)	(-7.236707e-09 5.635465e-07 1.829054e-11)	(-1.860428e-08 5.406869e-06 1.251616e-08)
0.0275        	(-1.205930e-05 -1.848052e-05 9.184816e-09)	(-1.205574e-05 -1.847104e-05 8.801658e-09)	(-3.560189e-09 -9.477337e-09 3.831573e-10)	(-8.900705e-07 6.267095e-07 3.607572e-08)	(-9.003826e-07 -3.855208e-07 4.332722e-09)	(1.031214e-08 1.012230e-06 3.174300e-08)	(-2.584099e-08 5.970415e-06 1.253445e-08)	(-7.236707e-09 5.635465e-07 1.829054e-11)	(-1.860428e-08 5.406869e-06 1.251616e-08)
0.03          	(1.462321e-05 -2.808316e-05 -8.368368e-09)	(1.461891e-05 -2.806972e-05 -6.745320e-09)	(4.307131e-09 -1.343706e-08 -1.623048e-09)	(1.232593e-06 -5.302437e-07 5.268801e-09)	(1.205771e-06 -1.626530e-06 -1.218841e-08)	(2.682203e-08 1.096286e-06 1.745721e-08)	(-2.308061e-08 6.565424e-06 -1.221153e-08)	(-2.481458e-09 5.775154e-07 2.124020e-11)	(-2.059916e-08 5.987908e-06 -1.223277e-08)
0.03          	(1.462321e-05 -2.808316e-05 -8.368368e-09)	(1.461891e-05 -2.806972e-05 -6.745320e-09)	(4.307131e-09 -1.343706e-08 -1.623048e-09)	(1.232593e-06 -5.302437e-07 5.268801e-09)	(1.205771e-06 -1.626530e-06 -1.218841e-08)	(2.682203e-08 1.096286e-06 1.745721e-08)	(-2.308061e-08 6.565424e-06 -1.221153e-08)	(-2.481458e-09 5.775154e-07 2.124020e-11)	(-2.059916e-08 5.987908e-06 -1.223277e-08)
0.0325        	(-1.486408e-05 -2.182747e-05 -1.747918e-09)	(-1.486041e-05 -2.181373e-05 -3.637196e-12)	(-3.663721e-09 -1.373637e-08 -1.744281e-09)	(-1.167610e-06 4.229694e-07 1.616561e-08)	(-1.178061e-06 -7.268419e-07 3.392600e-09)	(1.045154e-08 1.149811e-06 1.277301e-08)	(-1.147153e-08 7.121828e-06 -8.040012e-09)	(5.459301e-09 5.774796e-07 -2.259091e-11)	(-1.693083e-08 6.544349e-06 -8.017421e-09)
0.0325        	(-1.486408e-05 -2.182747e-05 -1.747918e-09)	(-1.486041e-05 -2.181373e-05 -3.637196e-12)	(-3.663721e-09 -1.373637e-08 -1.744281e-09)	(-1.167610e-06 4.229694e-07 1.616561e-08)	(-1.178061e-06 -7.268419e-07 3.392600e-09)	(1.045154e-08 1.149811e-06 1.277301e-08)	(-1.147153e-08 7.121828e-06 -8.040012e-09)	(5.459301e-09 5.774796e-07 -2.259091e-11)	(-1.693083e-08 6.544349e-06 -8.017421e-09)
0.035         	(1.573696e-05 -2.963952e-05 9.373758e-09)	(1.573235e-05 -2.962187e-05 8.371087e-09)	(4.606707e-09 -1.764495e-08 1.002671e-09)	(1.143213e-06 -1.684745e-07 3.400418e-08)	(1.127768e-06 -1.365858e-06 9.397995e-09)	(1.544495e-08 1.197384e-06 2.460618e-08)	(-2.162259e-08 7.680123e-06 1.405443e-08)	(-2.213002e-09 5.885348e-07 1.861435e-11)	(-1.940959e-08 7.091589e-06 1.403581e-08)
0.035         	(1.573696e-05 -2.963952e-05 9.373758e-09)	(1.573235e-05 -2.962187e-05 8.371087e-09)	(4.606707e-09 -1.764495e-08 1.002671e-09)	(1.143213e-06 -1.684745e-07 3.400418e-08)	(1.127768e-06 -1.365858e-06 9.397995e-09)	(1.544495e-08 1.197384e-06 2.460618e-08)	(-2.162259e-08 7.680123e-06 1.405443e-08)	(-2.213002e-09 5.885348e-07 1.861435e-11)	(-1.940959e-08 7.091589e-06 1.403581e-08)
0.0375        	(-1.793743e-05 -2.370490e-05 -1.959302e-08)	(-1.793283e-05 -2.368607e-05 -1.574186e-08)	(-4.592204e-09 -1.883017e-08 -3.851167e-09)	(-1.149442e-06 4.464390e-07 -1.724647e-08)	(-1.164301e-06 -8.063791e-07 -1.490580e-08)	(1.485895e-08 1.252818e-06 -2.340667e-09)	(-1.430340e-08 8.217569e-06 -3.078260e-08)	(2.938346e-09 5.870435e-07 -2.479888e-11)	(-1.724175e-08 7.630526e-06 -3.075780e-08)
0.0375        	(-1.793743e-05 -2.370490e-05 -1.959302e-08)	(-1.793283e-05 -2.368607e-05 -1.574186e-08)	(-4.592204e-09 -1.883017e-08 -3.851167e-09)	(-1.149442e-06 4.464390e-07 -1.724647e-08)	(-1.164301e-06 -8.063791e-07 -1.490580e-08)	(1.485895e-08 1.252818e-06 -2.340667e-09)	(-1.430340e-08 8.217569e-06 -3.078260e-08)	(2.938346e-09 5.870435e-07 -2.479888e-11)	(-1.724175e-08 7.630526e-06 -3.075780e-08)
0.04          	(1.768714e-05 -2.856666e-05 2.205784e-08)	(1.768310e-05 -2.854412e-05 1.954474e-08)	(4.038214e-09 -2.254165e-08 2.513097e-09)	(1.372440e-06 4.642354e-07 4.928236e-08)	(1.369037e-06 -8.223623e-07 1.730176e-08)	(3.403075e-09 1.286598e-06 3.198060e-08)	(-1.506761e-08 8.736554e-06 3.045670e-08)	(7.564382e-10 5.962287e-07 3.865148e-11)	(-1.582404e-08 8.140325e-06 3.041805e-08)
0.04          	(1.768714e-05 -2.856666e-05 2.205784e-08)	(1.768310e-05 -2.854412e-05 1.954474e-08)	(4.038214e-09 -2.254165e-08 2.513097e-09)	(1.372440e-06 4.642354e-07 4.928236e-08)	(1.369037e-06 -8.223623e-07 1.730176e-08)	(3.403075e-09 1.286598e-06 3.198060e-08)	(-1.506761e-08 8.736554e-06 3.045670e-08)	(7.564382e-10 5.962287e-07 3.865148e-11)	(-1.582404e-08 8.140325e-06 3.041805e-08)
0.0425        	(-2.025136e-05 -2.078062e-05 -2.223967e-08)	(-2.024588e-05 -2.075923e-05 -1.870568e-08)	(-5.486956e-09 -2.139063e-08 -3.533986e-09)	(-1.396508e-06 7.247015e-07 -2.022499e-08)	(-1.401816e-06 -6.077584e-07 -1.734954e-08)	(5.308004e-09 1.332460e-06 -2.875457e-09)	(-1.529207e-08 9.320014e-06 -3.196051e-08)	(1.119007e-09 6.272905e-07 -4.378898e-11)	(-1.641108e-08 8.692724e-06 -3.191672e-08)
0.0425        	(-2.025136e-05 -2.078062e-05 -2.223967e-08)	(-2.024588e-05 -2.075923e-05 -1.870568e-08)	(-5.486956e-09 -2.139063e-08 -3.533986e-09)	(-1.396508e-06 7.247015e-07 -2.022499e-08)	(-1.401816e-06 -6.077584e-07 -1.734954e-08)	(5.308004e-09 1.332460e-06 -2.875457e-09)	(-1.529207e-08 9.320014e-06 -3.196051e-08)	(1.119007e-09 6.272905e-07 -4.378898e-11)	(-1.641108e-08 8.692724e-06 -3.191672e-08)
0.045         	(2.578087e-05 -2.413384e-05 2.362274e-08)	(2.577438e-05 -2.411165e-05 2.077159e-08)	(6.482994e-09 -2.218627e-08 2.851142e-09)	(1.572896e-06 2.302702e-07 5.332601e-08)	(1.561214e-06 -1.148747e-06 1.884105e-08)	(1.168246e-08 1.379017e-06 3.448496e-08)	(-1.594101e-08 9.902646e-06 3.796803e-08)	(-3.170090e-10 6.493627e-07 4.441885e-11)	(-1.562400e-08 9.253283e-06 3.792361e-08)
0.045         	(2.578087e-05 -2.413384e-05 2.362274e-08)	(2.577438e-05 -2.411165e-05 2.077159e-08)	(6.482994e-09 -2.218627e-08 2.851142e-09)	(1.572896e-06 2.302702e-07 5.332601e-08)	(1.561214e-06 -1.148747e-06 1.884105e-08)	(1.168246e-08 1.379017e-06 3.448496e-08)	(-1.594101e-08 9.902646e-06 3.796803e-08)	(-3.170090e-10 6.493627e-07 4.441885e-11)	(-1.562400e-08 9.253283e-06 3.792361e-08)
0.0475        	(-1.929265e-05 -1.764269e-05 -1.799689e-08)	(-1.929016e-05 -1.762304e-05 -1.604993e-08)	(-2.485820e-09 -1.965268e-08 -1.946959e-09)	(-1.180049e-06 -1.978909e-07 -1.423541e-08)	(-1.188416e-06 -1.616044e-06 -1.503154e-08)	(8.367177e-09 1.418153e-06 7.961255e-10)	(-1.298789e-08 1.043002e-05 -1.893030e-08)	(2.121077e-09 6.438442e-07 -2.808607e-11)	(-1.510897e-08 9.786173e-06 -1.890222e-08)
0.0475        	(-1.929265e-05 -1.764269e-05 -1.799689e-08)	(-1.929016e-05 -1.762304e-05 -1.604993e-08)	(-2.485820e-09 -1.965268e-08 -1.946959e-09)	(-1.180049e-06 -1.978909e-07 -1.423541e-08)	(-1.188416e-06 -1.616044e-06 -1.503154e-08)	(8.367177e-09 1.418153e-06 7.961255e-10)	(-1.298789e-08 1.043002e-05 -1.893030e-08)	(2.121077e-09 6.438442e-07 -2.808607e-11)	(-1.510897e-08 9.786173e-06 -1.890222e-08)
0.05          	(2.372169e-05 -2.076574e-05 -2.788378e-09)	(2.371379e-05 -2.074663e-05 -1.022438e-09)	(7.903236e-09 -1.911276e-08 -1.765940e-09)	(1.508405e-06 4.342067e-07 1.073986e-09)	(1.501126e-06 -1.004106e-06 -1.339475e-09)	(7.279224e-09 1.438313e-06 2.413461e-09)	(-1.713067e-08 1.100187e-05 -1.275011e-08)	(-1.303733e-09 6.647801e-07 1.576899e-12)	(-1.582694e-08 1.033709e-05 -1.275169e-08)
0.05          	(2.372169e-05 -2.076574e-05 -2.788378e-09)	(2.371379e-05 -2.074663e-05 -1.022438e-09)	(7.903236e-09 -1.911276e-08 -1.765940e-09)	(1.508405e-06 4.342067e-07 1.073986e-09)	(1.501126e-06 -1.004106e-06 -1.339475e-09)	(7.279224e-09 1.438313e-06 2.413461e-09)	(-1.713067e-08 1.100187e-05 -1.275011e-08)	(-1.303733e-09 6.647801e-07 1.576899e-12)	(-1.582694e-08 1.033709e-05 -1.275169e-08)
0.0525        	(-2.370565e-05 -2.836706e-05 1.001971e-08)	(-2.370277e-05 -2.834552e-05 9.270209e-09)	(-2.872684e-09 -2.154856e-08 7.494990e-10)	(-1.140538e-06 1.878302e-08 1.994565e-08)	(-1.137441e-06 -1.469276e-06 3.910559e-09)	(-3.096683e-09 1.488059e-06 1.603509e-08)	(-9.555111e-09 1.159276e-05 1.012392e-08)	(3.736428e-09 6.875092e-07 6.485441e-12)	(-1.329154e-08 1.090525e-05 1.011743e-08)
0.0525        	(-2.370565e-05 -2.836706e-05 1.001971e-08)	(-2.370277e-05 -2.834552e-05 9.270209e-09)	(-2.872684e-09 -2.154856e-08 7.494990e-10)	(-1.140538e-06 1.878302e-08 1.994565e-08)	(-1.137441e-06 -1.469276e-06 3.910559e-09)	(-3.096683e-09 1.488059e-06 1.603509e-08)	(-9.555111e-09 1.159276e-05 1.012392e-08)	(3.736428e-09 6.875092e-07 6.485441e-12)	(-1.329154e-08 1.090525e-05 1.011743e-08)
0.055         	(2.308187e-05 -3.040406e-05 -1.358471e-08)	(2.307471e-05 -3.037967e-05 -1.131336e-08)	(7.163679e-09 -2.439050e-08 -2.271349e-09)	(1.524632e-06 8.794473e-07 -5.832994e-09)	(1.521950e-06 -6.515503e-07 -5.577710e-09)	(2.681889e-09 1.530998e-06 -2.552840e-10)	(-2.065338e-08 1.217211e-05 -1.835014e-08)	(-4.010535e-09 7.008423e-07 -1.243558e-11)	(-1.664284e-08 1.147127e-05 -1.833771e-08)
0.055         	(2.308187e-05 -3.040406e-05 -1.358471e-08)	(2.307471e-05 -3.037967e-05 -1.131336e-08)	(7.163679e-09 -2.439050e-08 -2.271349e-09)	(1.524632e-06 8.794473e-07 -5.832994e-09)	(1.521950e-06 -6.515503e-07 -5.577710e-09)	(2.681889e-09 1.530998e-06 -2.552840e-10)	(-2.065338e-08 1.217211e-05 -1.835014e-08)	(-4.010535e-09 7.008423e-07 -1.243558e-11)	(-1.664284e-08 1.147127e-05 -1.833771e-08)
0.0575        	(-2.603234e-05 -2.875788e-05 1.378072e-08)	(-2.602808e-05 -2.873218e-05 1.273144e-08)	(-4.262721e-09 -2.570177e-08 1.049271e-09)	(-1.350537e-06 4.712389e-07 2.822294e-08)	(-1.346676e-06 -1.092648e-06 8.517842e-09)	(-3.860125e-09 1.563887e-06 1.970510e-08)	(-2.088048e-08 1.272844e-05 1.649911e-08)	(-2.109729e-09 7.045207e-07 1.495228e-11)	(-1.877075e-08 1.202392e-05 1.648415e-08)
0.0575        	(-2.603234e-05 -2.875788e-05 1.378072e-08)	(-2.602808e-05 -2.873218e-05 1.273144e-08)	(-4.262721e-09 -2.570177e-08 1.049271e-09)	(-1.350537e-06 4.712389e-07 2.822294e-08)	(-1.346676e-06 -1.092648e-06 8.517842e-09)	(-3.860125e-09 1.563887e-06 1.970510e-08)	(-2.088048e-08 1.272844e-05 1.649911e-08)	(-2.109729e-09 7.045207e-07 1.495228e-11)	(-1.877075e-08 1.202392e-05 1.648415e-08)
0.06          	(2.512759e-05 -2.584206e-05 -1.783596e-08)	(2.512093e-05 -2.581636e-05 -1.525438e-08)	(6.662164e-09 -2.570159e-08 -2.581578e-09)	(1.286263e-06 9.382154e-07 -2.024245e-08)	(1.289370e-06 -6.454197e-07 -1.467629e-08)	(-3.107899e-09 1.583635e-06 -5.566162e-09)	(-1.358399e-08 1.332331e-05 -2.507476e-08)	(1.053781e-09 7.290262e-07 -2.535928e-11)	(-1.463777e-08 1.259429e-05 -2.504940e-08)
0.06          	(2.512759e-05 -2.584206e-05 -1.783596e-08)	(2.512093e-05 -2.581636e-05 -1.525438e-08)	(6.662164e-09 -2.570159e-08 -2.581578e-09)	(1.286263e-06 9.382154e-07 -2.024245e-08)	(1.289370e-06 -6.454197e-07 -1.467629e-08)	(-3.107899e-09 1.583635e-06 -5.566162e-09)	(-1.358399e-08 1.332331e-05 -2.507476e-08)	(1.053781e-09 7.290262e-07 -2.535928e-11)	(-1.463777e-08 1.259429e-05 -2.504940e-08)
0.0625        	(-2.771819e-05 -2.691274e-05 1.902397e-08)	(-2.771316e-05 -2.688606e-05 1.726795e-08)	(-5.022630e-09 -2.667679e-08 1.756019e-09)	(-1.503413e-06 3.828047e-07 3.602767e-08)	(-1.502799e-06 -1.249167e-06 1.597064e-08)	(-6.135809e-10 1.631972e-06 2.005703e-08)	(4.874733e-09 1.389494e-05 2.605183e-08)	(9.050026e-09 7.358947e-07 3.972805e-11)	(-4.175293e-09 1.315904e-05 2.601210e-08)
0.0625        	(-2.771819e-05 -2.691274e-05 1.902397e-08)	(-2.771316e-05 -2.688606e-05 1.726795e-08)	(-5.022630e-09 -2.667679e-08 1.756019e-09)	(-1.503413e-06 3.828047e-07 3.602767e-08)	(-1.502799e-06 -1.249167e-06 1.597064e-08)	(-6.135809e-10 1.631972e-06 2.005703e-08)	(4.874733e-09 1.389494e-05 2.605183e-08)	(9.050026e-09 7.358947e-07 3.972805e-11)	(-4.175293e-09 1.315904e-05 2.601210e-08)
0.065         	(2.953823e-05 -3.378300e-05 -1.582572e-08)	(2.953089e-05 -3.375180e-05 -1.390911e-08)	(7.342196e-09 -3.119579e-08 -1.916610e-09)	(1.444616e-06 1.915916e-07 -1.265049e-08)	(1.446121e-06 -1.463523e-06 -1.028448e-08)	(-1.505134e-09 1.655114e-06 -2.366005e-09)	(-2.309462e-09 1.448325e-05 -2.024703e-08)	(9.921976e-10 7.510774e-07 -3.313015e-11)	(-3.301660e-09 1.373218e-05 -2.021390e-08)
0.065         	(2.953823e-05 -3.378300e-05 -1.582572e-08)	(2.953089e-05 -3.375180e-05 -1.390911e-08)	(7.342196e-09 -3.119579e-08 -1.916610e-09)	(1.444616e-06 1.915916e-07 -1.265049e-08)	(1.446121e-06 -1.463523e-06 -1.028448e-08)	(-1.505134e-09 1.655114e-06 -2.366005e-09)	(-2.309462e-09 1.448325e-05 -2.024703e-08)	(9.921976e-10 7.510774e-07 -3.313015e-11)	(-3.301660e-09 1.373218e-05 -2.021390e-08)
0.0675        	(-3.638810e-05 -2.130639e-05 6.851402e-09)	(-3.638054e-05 -2.127499e-05 6.936249e-09)	(-7.562422e-09 -3.140757e-08 -8.484678e-11)	(-1.912970e-06 4.931420e-07 1.371867e-08)	(-1.899096e-06 -1.185155e-06 2.037169e-09)	(-1.387317e-08 1.678297e-06 1.168150e-08)	(-1.167286e-08 1.509126e-05 6.328906e-09)	(-3.482337e-09 7.755677e-07 1.772836e-11)	(-8.190523e-09 1.431569e-05 6.311178e-09)
0.0675        	(-3.638810e-05 -2.130639e-05 6.851402e-09)	(-3.638054e-05 -2.127499e-05 6.936249e-09)	(-7.562422e-09 -3.140757e-08 -8.484678e-11)	(-1.912970e-06 4.931420e-07 1.371867e-08)	(-1.899096e-06 -1.185155e-06 2.037169e-09)	(-1.387317e-08 1.678297e-06 1.168150e-08)	(-1.167286e-08 1.509126e-05 6.328906e-09)	(-3.482337e-09 7.755677e-07 1.772836e-11)	(-8.190523e-09 1.431569e-05 6.311178e-09)
0.07          	(3.324940e-05 -3.463916e-05 3.099340e-09)	(3.324343e-05 -3.460271e-05 2.459172e-09)	(5.964029e-09 -3.645104e-08 6.401682e-10)	(1.722028e-06 1.693074e-08 1.284526e-08)	(1.723677e-06 -1.723044e-06 2.615072e-09)	(-1.648454e-09 1.739975e-06 1.023019e-08)	(-1.432241e-08 1.574092e-05 8.929227e-09)	(-3.003569e-09 8.097241e-07 -9.650775e-12)	(-1.131884e-08 1.493120e-05 8.938878e-09)
0.07          	(3.324940e-05 -3.463916e-05 3.099340e-09)	(3.324343e-05 -3.460271e-05 2.459172e-09)	(5.964029e-09 -3.645104e-08 6.401682e-10)	(1.722028e-06 1.693074e-08 1.284526e-08)	(1.723677e-06 -1.723044e-06 2.615072e-09)	(-1.648454e-09 1.739975e-06 1.023019e-08)	(-1.432241e-08 1.574092e-05 8.929227e-09)	(-3.003569e-09 8.097241e-07 -9.650775e-12)	(-1.131884e-08 1.493120e-05 8.938878e-09)
0.0725        	(-2.946664e-05 -1.875432e-05 -1.699158e-08)	(-2.946084e-05 -1.871993e-05 -1.407388e-08)	(-5.793972e-09 -3.438653e-08 -2.917697e-09)	(-1.571501e-06 1.182690e-06 -2.273004e-08)	(-1.564935e-06 -6.032131e-07 -1.040392e-08)	(-6.566697e-09 1.785903e-06 -1.232612e-08)	(-1.621087e-08 1.628492e-05 -2.966266e-08)	(-1.334537e-09 7.863039e-07 -1.394733e-11)	(-1.487634e-08 1.549862e-05 -2.964871e-08)
0.0725        	(-2.946664e-05 -1.875432e-05 -1.699158e-08)	(-2.946084e-05 -1.871993e-05 -1.407388e-08)	(-5.793972e-09 -3.438653e-08 -2.917697e-09)	(-1.571501e-06 1.182690e-06 -2.273004e-08)	(-1.564935e-06 -6.032131e-07 -1.040392e-08)	(-6.566697e-09 1.785903e-06 -1.232612e-08)	(-1.621087e-08 1.628492e-05 -2.966266e-08)	(-1.334537e-09 7.863039e-07 -1.394733e-11)	(-1.487634e-08 1.549862e-05 -2.964871e-08)
0.075         	(3.173119e-05 -3.326977e-05 2.907556e-08)	(3.172440e-05 -3.323253e-05 2.552015e-08)	(6.788199e-09 -3.723859e-08 3.555406e-09)	(1.661971e-06 4.935194e-07 5.078520e-08)	(1.671461e-06 -1.330933e-06 2.150231e-08)	(-9.489984e-09 1.824452e-06 2.928290e-08)	(-1.206138e-08 1.683593e-05 4.817731e-08)	(1.337531e-09 7.893300e-07 4.112516e-11)	(-1.339892e-08 1.604660e-05 4.813619e-08)
0.075         	(3.173119e-05 -3.326977e-05 2.907556e-08)	(3.172440e-05 -3.323253e-05 2.552015e-08)	(6.788199e-09 -3.723859e-08 3.555406e-09)	(1.661971e-06 4.935194e-07 5.078520e-08)	(1.671461e-06 -1.330933e-06 2.150231e-08)	(-9.489984e-09 1.824452e-06 2.928290e-08)	(-1.206138e-08 1.683593e-05 4.817731e-08)	(1.337531e-09 7.893300e-07 4.112516e-11)	(-1.339892e-08 1.604660e-05 4.813619e-08)
0.0775        	(-3.181657e-05 -1.624725e-05 -4.195205e-08)	(-3.181081e-05 -1.621378e-05 -3.632210e-08)	(-5.757756e-09 -3.346519e-08 -5.629949e-09)	(-1.717781e-06 1.458348e-06 -7.417962e-08)	(-1.730281e-06 -4.393996e-07 -2.904632e-08)	(1.250028e-08 1.897747e-06 -4.513330e-08)	(-9.800302e-09 1.749019e-05 -6.830397e-08)	(1.263233e-09 8.402019e-07 -3.119542e-11)	(-1.106354e-08 1.664999e-05 -6.827277e-08)
0.0775        	(-3.181657e-05 -1.624725e-05 -4.195205e-08)	(-3.181081e-05 -1.621378e-05 -3.632210e-08)	(-5.757756e-09 -3.346519e-08 -5.629949e-09)	(-1.717781e-06 1.458348e-06 -7.417962e-08)	(-1.730281e-06 -4.393996e-07 -2.904632e-08)	(1.250028e-08 1.897747e-06 -4.513330e-08)	(-9.800302e-09 1.749019e-05 -6.830397e-08)	(1.263233e-09 8.402019e-07 -3.119542e-11)	(-1.106354e-08 1.664999e-05 -6.827277e-08)
0.08          	(3.003605e-05 -3.543504e-05 4.076294e-08)	(3.002981e-05 -3.539802e-05 3.697593e-08)	(6.241675e-09 -3.701975e-08 3.787014e-09)	(1.668125e-06 2.407955e-08 6.443501e-08)	(1.661210e-06 -1.854304e-06 2.953415e-08)	(6.914288e-09 1.878383e-06 3.490087e-08)	(-1.727770e-08 1.806186e-05 5.485016e-08)	(-3.814606e-09 8.313909e-07 4.675220e-11)	(-1.346309e-08 1.723047e-05 5.480341e-08)
0.08          	(3.003605e-05 -3.543504e-05 4.076294e-08)	(3.002981e-05 -3.539802e-05 3.697593e-08)	(6.241675e-09 -3.701975e-08 3.787014e-09)	(1.668125e-06 2.407955e-08 6.443501e-08)	(1.661210e-06 -1.854304e-06 2.953415e-08)	(6.914288e-09 1.878383e-06 3.490087e-08)	(-1.727770e-08 1.806186e-05 5.485016e-08)	(-3.814606e-09 8.313909e-07 4.675220e-11)	(-1.346309e-08 1.723047e-05 5.480341e-08)
0.0825        	(-3.216064e-05 -1.732914e-05 -2.596234e-08)	(-3.215428e-05 -1.729440e-05 -2.369789e-08)	(-6.355684e-09 -3.473871e-08 -2.264446e-09)	(-1.673626e-06 1.456059e-06 -3.762538e-08)	(-1.646537e-06 -6.447469e-07 -2.298519e-08)	(-2.708905e-08 2.100806e-06 -1.464019e-08)	(-2.010509e-10 1.890501e-05 -2.720781e-08)	(9.125660e-09 9.413092e-07 -1.346626e-10)	(-9.326711e-09 1.796370e-05 -2.707315e-08)
0.0825        	(-3.216064e-05 -1.732914e-05 -2.596234e-08)	(-3.215428e-05 -1.729440e-05 -2.369789e-08)	(-6.355684e-09 -3.473871e-08 -2.264446e-09)	(-1.673626e-06 1.456059e-06 -3.762538e-08)	(-1.646537e-06 -6.447469e-07 -2.298519e-08)	(-2.708905e-08 2.100806e-06 -1.464019e-08)	(-2.010509e-10 1.890501e-05 -2.720781e-08)	(9.125660e-09 9.413092e-07 -1.346626e-10)	(-9.326711e-09 1.796370e-05 -2.707315e-08)
0.085         	(2.879437e-05 -3.749641e-05 2.207851e-09)	(2.878997e-05 -3.745678e-05 3.483367e-09)	(4.402994e-09 -3.963414e-08 -1.275517e-09)	(1.674894e-06 -1.131651e-07 3.765648e-09)	(1.677772e-06 -2.065590e-06 8.165395e-09)	(-2.877900e-09 1.952425e-06 -4.399747e-09)	(-1.485192e-08 1.928823e-05 -5.882862e-09)	(-6.643009e-09 8.088356e-07 1.195890e-10)	(-8.208913e-09 1.847939e-05 -6.002451e-09)
0.085         	(2.879437e-05 -3.749641e-05 2.207851e-09)	(2.878997e-05 -3.745678e-05 3.483367e-09)	(4.402994e-09 -3.963414e-08 -1.275517e-09)	(1.674894e-06 -1.131651e-07 3.765648e-09)	(1.677772e-06 -2.065590e-06 8.165395e-09)	(-2.877900e-09 1.952425e-06 -4.399747e-09)	(-1.485192e-08 1.928823e-05 -5.882862e-09)	(-6.643009e-09 8.088356e-07 1.195890e-10)	(-8.208913e-09 1.847939e-05 -6.002451e-09)
0.0875        	(-2.913417e-05 -2.246642e-05 2.666519e-08)	(-2.912787e-05 -2.242769e-05 2.256922e-08)	(-6.300434e-09 -3.872811e-08 4.095969e-09)	(-1.589378e-06 1.548736e-06 1.800072e-08)	(-1.649827e-06 -4.562006e-07 1.657683e-08)	(6.044848e-08 2.004937e-06 1.423890e-09)	(1.655402e-09 1.999557e-05 4.493156e-08)	(4.885527e-09 8.960037e-07 8.595317e-11)	(-3.230126e-09 1.909957e-05 4.484560e-08)
0.0875        	(-2.913417e-05 -2.246642e-05 2.666519e-08)	(-2.912787e-05 -2.242769e-05 2.256922e-08)	(-6.300434e-09 -3.872811e-08 4.095969e-09)	(-1.589378e-06 1.548736e-06 1.800072e-08)	(-1.649827e-06 -4.562006e-07 1.657683e-08)	(6.044848e-08 2.004937e-06 1.423890e-09)	(1.655402e-09 1.999557e-05 4.493156e-08)	(4.885527e-09 8.960037e-07 8.595317e-11)	(-3.230126e-09 1.909957e-05 4.484560e-08)
0.09          	(2.062783e-05 -4.259997e-05 -6.401369e-08)	(2.062594e-05 -4.255483e-05 -5.553566e-08)	(1.894298e-09 -4.513163e-08 -8.478025e-09)	(1.310613e-06 4.111928e-07 -9.697312e-08)	(1.315330e-06 -1.580102e-06 -4.821636e-08)	(-4.716848e-09 1.991294e-06 -4.875677e-08)	(-4.077800e-08 2.067519e-05 -9.940894e-08)	(-1.781294e-08 9.227893e-07 -1.344327e-10)	(-2.296506e-08 1.975241e-05 -9.927451e-08)