# Moment bins 
# bins        : 3
# start       : 4.263142e-03
# end         : 5.000496e-01
# delta       : 1.652621e-01
# direction   : (0.000000e+00 0.000000e+00 1.000000e+00)
# x co-ords  :	0.000000e+00	0.000000e+00	0.000000e+00
# y co-ords  :	0.000000e+00	0.000000e+00	0.000000e+00
# z co-ords  :	1.695253e-01	3.347874e-01	5.000496e-01
#
# Time        	0:(total_x total_y total_z)	0:(pressure_x pressure_y pressure_z)	0:(viscous_x viscous_y viscous_z)	1:(total_x total_y total_z)	1:(pressure_x pressure_y pressure_z)	1:(viscous_x viscous_y viscous_z)	2:(total_x total_y total_z)	2:(pressure_x pressure_y pressure_z)	2:(viscous_x viscous_y viscous_z)
0             	(-3.390010e-08 4.227365e-08 -6.691458e-10)	(-3.390010e-08 4.227365e-08 -6.691458e-10)	(0.000000e+00 0.000000e+00 0.000000e+00)	(2.899490e-07 -4.268229e-08 -5.179065e-07)	(2.899490e-07 -4.268229e-08 -5.179065e-07)	(0.000000e+00 0.000000e+00 0.000000e+00)	(-1.834859e-10 -6.886412e-10 -3.384390e-11)	(-1.834859e-10 -6.886412e-10 -3.384390e-11)	(0.000000e+00 0.000000e+00 0.000000e+00)
0             	(-3.390010e-08 4.227365e-08 -6.691458e-10)	(-3.390010e-08 4.227365e-08 -6.691458e-10)	(0.000000e+00 0.000000e+00 0.000000e+00)	(2.899490e-07 -4.268229e-08 -5.179065e-07)	(2.899490e-07 -4.268229e-08 -5.179065e-07)	(0.000000e+00 0.000000e+00 0.000000e+00)	(-1.834859e-10 -6.886412e-10 -3.384390e-11)	(-1.834859e-10 -6.886412e-10 -3.384390e-11)	(0.000000e+00 0.000000e+00 0.000000e+00)
0.005         	(5.563623e-07 -2.027215e-06 2.705092e-08)	(5.562189e-07 -2.027216e-06 2.634434e-08)	(1.434640e-10 1.493686e-12 7.065766e-10)	(2.557585e-07 -4.757854e-07 -7.250487e-08)	(2.555945e-07 -5.025361e-07 -7.585850e-08)	(1.640264e-10 2.675068e-08 3.353628e-09)	(-3.506561e-09 6.278994e-07 6.694834e-09)	(-3.460131e-09 4.639551e-07 6.716310e-11)	(-4.643062e-11 1.639444e-07 6.627671e-09)
0.005         	(5.563623e-07 -2.027215e-06 2.705092e-08)	(5.562189e-07 -2.027216e-06 2.634434e-08)	(1.434640e-10 1.493686e-12 7.065766e-10)	(2.557585e-07 -4.757854e-07 -7.250487e-08)	(2.555945e-07 -5.025361e-07 -7.585850e-08)	(1.640264e-10 2.675068e-08 3.353628e-09)	(-3.506561e-09 6.278994e-07 6.694834e-09)	(-3.460131e-09 4.639551e-07 6.716310e-11)	(-4.643062e-11 1.639444e-07 6.627671e-09)
0.01          	(7.676755e-06 -4.091772e-06 -1.115623e-09)	(7.669121e-06 -4.090068e-06 -8.085078e-10)	(7.634026e-09 -1.703988e-09 -3.071155e-10)	(9.096835e-07 -1.804621e-06 -1.125350e-07)	(1.216548e-06 -1.044779e-06 -2.115145e-07)	(-3.068649e-07 -7.598419e-07 9.897951e-08)	(-1.834665e-07 1.455375e-06 -5.254221e-09)	(-4.778760e-08 3.950690e-07 2.607651e-11)	(-1.356789e-07 1.060306e-06 -5.280298e-09)
0.01          	(7.676755e-06 -4.091772e-06 -1.115623e-09)	(7.669121e-06 -4.090068e-06 -8.085078e-10)	(7.634026e-09 -1.703988e-09 -3.071155e-10)	(9.096835e-07 -1.804621e-06 -1.125350e-07)	(1.216548e-06 -1.044779e-06 -2.115145e-07)	(-3.068649e-07 -7.598419e-07 9.897951e-08)	(-1.834665e-07 1.455375e-06 -5.254221e-09)	(-4.778760e-08 3.950690e-07 2.607651e-11)	(-1.356789e-07 1.060306e-06 -5.280298e-09)
0.015         	(-1.015093e-05 2.104896e-06 -1.012810e-08)	(-1.014991e-05 2.104323e-06 -5.841533e-09)	(-1.021900e-09 5.731179e-10 -4.286569e-09)	(-3.976038e-08 3.208639e-07 -4.953191e-07)	(2.312566e-06 -5.173435e-08 5.125908e-07)	(-2.352326e-06 3.725982e-07 -1.007910e-06)	(5.462201e-08 2.808181e-06 -2.817960e-08)	(5.838380e-08 4.767245e-07 -1.581632e-10)	(-3.761792e-09 2.331457e-06 -2.802144e-08)
0.015         	(-1.015093e-05 2.104896e-06 -1.012810e-08)	(-1.014991e-05 2.104323e-06 -5.841533e-09)	(-1.021900e-09 5.731179e-10 -4.286569e-09)	(-3.976038e-08 3.208639e-07 -4.953191e-07)	(2.312566e-06 -5.173435e-08 5.125908e-07)	(-2.352326e-06 3.725982e-07 -1.007910e-06)	(5.462201e-08 2.808181e-06 -2.817960e-08)	(5.838380e-08 4.767245e-07 -1.581632e-10)	(-3.761792e-09 2.331457e-06 -2.802144e-08)
0.02          	(1.070839e-05 -8.792977e-06 1.123438e-08)	(1.070262e-05 -8.785346e-06 8.925373e-09)	(5.762447e-09 -7.630763e-09 2.309010e-09)	(3.710696e-06 1.970777e-06 -1.057663e-06)	(2.536509e-06 1.006608e-06 3.616747e-07)	(1.174186e-06 9.641688e-07 -1.419338e-06)	(1.152988e-07 4.427511e-06 2.628177e-08)	(4.744065e-08 6.180840e-07 -8.516921e-11)	(6.785812e-08 3.809427e-06 2.636694e-08)
0.02          	(1.070839e-05 -8.792977e-06 1.123438e-08)	(1.070262e-05 -8.785346e-06 8.925373e-09)	(5.762447e-09 -7.630763e-09 2.309010e-09)	(3.710696e-06 1.970777e-06 -1.057663e-06)	(2.536509e-06 1.006608e-06 3.616747e-07)	(1.174186e-06 9.641688e-07 -1.419338e-06)	(1.152988e-07 4.427511e-06 2.628177e-08)	(4.744065e-08 6.180840e-07 -8.516921e-11)	(6.785812e-08 3.809427e-06 2.636694e-08)
0.025         	(-1.033748e-05 -1.143915e-05 9.564244e-09)	(-1.033166e-05 -1.142435e-05 4.874515e-09)	(-5.821185e-09 -1.480426e-08 4.689729e-09)	(1.786059e-06 1.504069e-06 -1.011938e-09)	(9.395000e-07 -1.769400e-07 3.139116e-07)	(8.465585e-07 1.681009e-06 -3.149235e-07)	(8.013905e-08 5.410762e-06 4.929608e-08)	(-2.594271e-08 5.182929e-07 3.252203e-12)	(1.060818e-07 4.892469e-06 4.929283e-08)
0.025         	(-1.033748e-05 -1.143915e-05 9.564244e-09)	(-1.033166e-05 -1.142435e-05 4.874515e-09)	(-5.821185e-09 -1.480426e-08 4.689729e-09)	(1.786059e-06 1.504069e-06 -1.011938e-09)	(9.395000e-07 -1.769400e-07 3.139116e-07)	(8.465585e-07 1.681009e-06 -3.149235e-07)	(8.013905e-08 5.410762e-06 4.929608e-08)	(-2.594271e-08 5.182929e-07 3.252203e-12)	(1.060818e-07 4.892469e-06 4.929283e-08)
0.03          	(1.915458e-05 5.657003e-06 -1.064985e-08)	(1.914593e-05 5.664881e-06 -1.130196e-08)	(8.652990e-09 -7.877827e-09 6.521032e-10)	(4.384376e-06 4.409792e-07 -1.526437e-06)	(1.504727e-06 -6.064642e-07 -1.008363e-06)	(2.879650e-06 1.047443e-06 -5.180731e-07)	(-4.580629e-07 5.509327e-06 -6.840972e-09)	(-1.888683e-07 2.911079e-07 1.935737e-10)	(-2.691947e-07 5.218219e-06 -7.034546e-09)
0.03          	(1.915458e-05 5.657003e-06 -1.064985e-08)	(1.914593e-05 5.664881e-06 -1.130196e-08)	(8.652990e-09 -7.877827e-09 6.521032e-10)	(4.384376e-06 4.409792e-07 -1.526437e-06)	(1.504727e-06 -6.064642e-07 -1.008363e-06)	(2.879650e-06 1.047443e-06 -5.180731e-07)	(-4.580629e-07 5.509327e-06 -6.840972e-09)	(-1.888683e-07 2.911079e-07 1.935737e-10)	(-2.691947e-07 5.218219e-06 -7.034546e-09)
0.035         	(-1.263680e-05 -7.574074e-06 -1.436199e-08)	(-1.263656e-05 -7.565733e-06 -9.632097e-09)	(-2.493024e-10 -8.341144e-09 -4.729896e-09)	(-1.374313e-06 -4.702354e-06 -1.524696e-06)	(-4.658261e-06 -4.308163e-06 -4.063801e-07)	(3.283948e-06 -3.941910e-07 -1.118316e-06)	(-1.855565e-07 8.428831e-06 -5.292753e-08)	(4.062863e-08 9.692758e-07 -1.749952e-10)	(-2.261851e-07 7.459556e-06 -5.275254e-08)
0.035         	(-1.263680e-05 -7.574074e-06 -1.436199e-08)	(-1.263656e-05 -7.565733e-06 -9.632097e-09)	(-2.493024e-10 -8.341144e-09 -4.729896e-09)	(-1.374313e-06 -4.702354e-06 -1.524696e-06)	(-4.658261e-06 -4.308163e-06 -4.063801e-07)	(3.283948e-06 -3.941910e-07 -1.118316e-06)	(-1.855565e-07 8.428831e-06 -5.292753e-08)	(4.062863e-08 9.692758e-07 -1.749952e-10)	(-2.261851e-07 7.459556e-06 -5.275254e-08)
0.04          	(3.670998e-06 -1.618382e-06 6.235816e-09)	(3.663841e-06 -1.613798e-06 7.367371e-09)	(7.157559e-09 -4.584308e-09 -1.131555e-09)	(6.212244e-06 1.473313e-06 -1.509037e-06)	(1.950812e-06 -4.874103e-08 -5.421617e-08)	(4.261432e-06 1.522054e-06 -1.454821e-06)	(-5.269156e-07 9.455572e-06 -8.218637e-09)	(-1.017361e-07 6.937595e-07 -9.317911e-11)	(-4.251795e-07 8.761813e-06 -8.125458e-09)
0.04          	(3.670998e-06 -1.618382e-06 6.235816e-09)	(3.663841e-06 -1.613798e-06 7.367371e-09)	(7.157559e-09 -4.584308e-09 -1.131555e-09)	(6.212244e-06 1.473313e-06 -1.509037e-06)	(1.950812e-06 -4.874103e-08 -5.421617e-08)	(4.261432e-06 1.522054e-06 -1.454821e-06)	(-5.269156e-07 9.455572e-06 -8.218637e-09)	(-1.017361e-07 6.937595e-07 -9.317911e-11)	(-4.251795e-07 8.761813e-06 -8.125458e-09)
0.045         	(1.002746e-05 -1.161852e-05 5.450763e-11)	(1.001846e-05 -1.161020e-05 -1.991256e-09)	(8.994341e-09 -8.320757e-09 2.045763e-09)	(8.218646e-06 1.142598e-06 -5.343136e-07)	(6.614086e-06 1.460673e-06 6.042128e-07)	(1.604560e-06 -3.180744e-07 -1.138526e-06)	(2.525066e-06 9.392515e-06 3.282203e-08)	(1.003547e-06 3.442707e-07 -4.481111e-11)	(1.521520e-06 9.048244e-06 3.286684e-08)
0.045         	(1.002746e-05 -1.161852e-05 5.450763e-11)	(1.001846e-05 -1.161020e-05 -1.991256e-09)	(8.994341e-09 -8.320757e-09 2.045763e-09)	(8.218646e-06 1.142598e-06 -5.343136e-07)	(6.614086e-06 1.460673e-06 6.042128e-07)	(1.604560e-06 -3.180744e-07 -1.138526e-06)	(2.525066e-06 9.392515e-06 3.282203e-08)	(1.003547e-06 3.442707e-07 -4.481111e-11)	(1.521520e-06 9.048244e-06 3.286684e-08)
0.05          	(2.590379e-06 1.504145e-05 1.392925e-08)	(2.584739e-06 1.504806e-05 1.427242e-08)	(5.640152e-09 -6.606123e-09 -3.431666e-10)	(-1.523784e-06 -6.202613e-07 -2.379710e-06)	(6.180949e-07 1.671801e-06 -4.671445e-07)	(-2.141879e-06 -2.292062e-06 -1.912566e-06)	(-1.343643e-06 1.069973e-05 -1.779340e-08)	(-9.377728e-07 6.510389e-07 2.293364e-10)	(-4.058699e-07 1.004869e-05 -1.802273e-08)
0.05          	(2.590379e-06 1.504145e-05 1.392925e-08)	(2.584739e-06 1.504806e-05 1.427242e-08)	(5.640152e-09 -6.606123e-09 -3.431666e-10)	(-1.523784e-06 -6.202613e-07 -2.379710e-06)	(6.180949e-07 1.671801e-06 -4.671445e-07)	(-2.141879e-06 -2.292062e-06 -1.912566e-06)	(-1.343643e-06 1.069973e-05 -1.779340e-08)	(-9.377728e-07 6.510389e-07 2.293364e-10)	(-4.058699e-07 1.004869e-05 -1.802273e-08)
0.055         	(4.942884e-08 -1.850528e-05 -7.230994e-09)	(4.119604e-08 -1.849111e-05 -8.013316e-09)	(8.232799e-09 -1.416749e-08 7.823219e-10)	(-2.397972e-06 -1.781890e-06 -2.042326e-06)	(-6.047786e-06 -4.375567e-06 -6.780393e-07)	(3.649815e-06 2.593677e-06 -1.364286e-06)	(-1.664498e-06 1.362110e-05 8.975209e-09)	(-4.720447e-07 1.142599e-06 -2.865052e-10)	(-1.192454e-06 1.247850e-05 9.261715e-09)
0.055         	(4.942884e-08 -1.850528e-05 -7.230994e-09)	(4.119604e-08 -1.849111e-05 -8.013316e-09)	(8.232799e-09 -1.416749e-08 7.823219e-10)	(-2.397972e-06 -1.781890e-06 -2.042326e-06)	(-6.047786e-06 -4.375567e-06 -6.780393e-07)	(3.649815e-06 2.593677e-06 -1.364286e-06)	(-1.664498e-06 1.362110e-05 8.975209e-09)	(-4.720447e-07 1.142599e-06 -2.865052e-10)	(-1.192454e-06 1.247850e-05 9.261715e-09)
0.06          	(-2.927004e-05 -1.378577e-05 5.095497e-09)	(-2.926982e-05 -1.377200e-05 4.733821e-09)	(-2.156096e-10 -1.377076e-08 3.616751e-10)	(5.639436e-06 5.232792e-07 -1.198841e-06)	(-1.344343e-06 -2.079104e-06 -8.519271e-08)	(6.983779e-06 2.602383e-06 -1.113648e-06)	(1.271576e-06 1.440791e-05 2.051361e-08)	(8.420295e-07 7.687954e-07 -1.750420e-10)	(4.295469e-07 1.363911e-05 2.068865e-08)
0.06          	(-2.927004e-05 -1.378577e-05 5.095497e-09)	(-2.926982e-05 -1.377200e-05 4.733821e-09)	(-2.156096e-10 -1.377076e-08 3.616751e-10)	(5.639436e-06 5.232792e-07 -1.198841e-06)	(-1.344343e-06 -2.079104e-06 -8.519271e-08)	(6.983779e-06 2.602383e-06 -1.113648e-06)	(1.271576e-06 1.440791e-05 2.051361e-08)	(8.420295e-07 7.687954e-07 -1.750420e-10)	(4.295469e-07 1.363911e-05 2.068865e-08)
0.065         	(3.849419e-05 2.531061e-06 -1.830197e-08)	(3.847600e-05 2.539613e-06 -1.665453e-08)	(1.818956e-08 -8.552252e-09 -1.647446e-09)	(1.819551e-05 2.407892e-06 -2.332898e-08)	(1.091165e-05 3.296336e-06 8.733743e-07)	(7.283860e-06 -8.884444e-07 -8.967033e-07)	(2.308303e-07 1.428039e-05 -3.181886e-08)	(-6.875086e-08 4.385424e-07 1.566093e-10)	(2.995811e-07 1.384185e-05 -3.197547e-08)
0.065         	(3.849419e-05 2.531061e-06 -1.830197e-08)	(3.847600e-05 2.539613e-06 -1.665453e-08)	(1.818956e-08 -8.552252e-09 -1.647446e-09)	(1.819551e-05 2.407892e-06 -2.332898e-08)	(1.091165e-05 3.296336e-06 8.733743e-07)	(7.283860e-06 -8.884444e-07 -8.967033e-07)	(2.308303e-07 1.428039e-05 -3.181886e-08)	(-6.875086e-08 4.385424e-07 1.566093e-10)	(2.995811e-07 1.384185e-05 -3.197547e-08)
0.07          	(-2.300369e-05 -6.393425e-06 1.056158e-08)	(-2.300461e-05 -6.382740e-06 8.990235e-09)	(9.200372e-10 -1.068502e-08 1.571344e-09)	(2.903613e-06 -1.675301e-06 -1.054527e-06)	(3.298968e-06 8.755235e-07 -1.795324e-07)	(-3.953550e-07 -2.550824e-06 -8.749947e-07)	(-1.372260e-06 1.514498e-05 2.537860e-08)	(-5.660671e-07 6.121703e-07 1.194909e-10)	(-8.061926e-07 1.453281e-05 2.525911e-08)
0.07          	(-2.300369e-05 -6.393425e-06 1.056158e-08)	(-2.300461e-05 -6.382740e-06 8.990235e-09)	(9.200372e-10 -1.068502e-08 1.571344e-09)	(2.903613e-06 -1.675301e-06 -1.054527e-06)	(3.298968e-06 8.755235e-07 -1.795324e-07)	(-3.953550e-07 -2.550824e-06 -8.749947e-07)	(-1.372260e-06 1.514498e-05 2.537860e-08)	(-5.660671e-07 6.121703e-07 1.194909e-10)	(-8.061926e-07 1.453281e-05 2.525911e-08)
0.075         	(9.773434e-06 -8.699018e-06 -6.382549e-11)	(9.767402e-06 -8.687029e-06 9.701872e-10)	(6.031790e-09 -1.198914e-08 -1.034013e-09)	(5.566411e-07 -2.995769e-06 -1.158696e-06)	(-1.021881e-05 -6.905159e-06 -1.350219e-06)	(1.077545e-05 3.909390e-06 1.915233e-07)	(2.319667e-07 1.804009e-05 -1.602292e-08)	(3.310037e-07 1.191551e-06 -2.731304e-10)	(-9.903700e-08 1.684854e-05 -1.574979e-08)
0.075         	(9.773434e-06 -8.699018e-06 -6.382549e-11)	(9.767402e-06 -8.687029e-06 9.701872e-10)	(6.031790e-09 -1.198914e-08 -1.034013e-09)	(5.566411e-07 -2.995769e-06 -1.158696e-06)	(-1.021881e-05 -6.905159e-06 -1.350219e-06)	(1.077545e-05 3.909390e-06 1.915233e-07)	(2.319667e-07 1.804009e-05 -1.602292e-08)	(3.310037e-07 1.191551e-06 -2.731304e-10)	(-9.903700e-08 1.684854e-05 -1.574979e-08)
0.08          	(-3.063205e-05 -1.959196e-05 7.225790e-09)	(-3.062672e-05 -1.957025e-05 6.823725e-09)	(-5.329536e-09 -2.170547e-08 4.020650e-10)	(1.021482e-05 3.075281e-06 -3.342615e-07)	(5.246170e-07 1.496706e-06 3.908706e-07)	(9.690200e-06 1.578575e-06 -7.251321e-07)	(3.200643e-07 1.912691e-05 6.114808e-09)	(1.612977e-07 9.269316e-07 5.848156e-11)	(1.587666e-07 1.819998e-05 6.056326e-09)
0.08          	(-3.063205e-05 -1.959196e-05 7.225790e-09)	(-3.062672e-05 -1.957025e-05 6.823725e-09)	(-5.329536e-09 -2.170547e-08 4.020650e-10)	(1.021482e-05 3.075281e-06 -3.342615e-07)	(5.246170e-07 1.496706e-06 3.908706e-07)	(9.690200e-06 1.578575e-06 -7.251321e-07)	(3.200643e-07 1.912691e-05 6.114808e-09)	(1.612977e-07 9.269316e-07 5.848156e-11)	(1.587666e-07 1.819998e-05 6.056326e-09)
0.085         	(5.692893e-06 -1.419640e-05 -1.070666e-08)	(5.697721e-06 -1.417111e-05 -9.102793e-09)	(-4.828613e-09 -2.529272e-08 -1.603872e-09)	(1.798833e-05 2.557959e-06 -4.662929e-07)	(9.910438e-06 2.901268e-06 1.800090e-07)	(8.077893e-06 -3.433086e-07 -6.463019e-07)	(-4.695663e-07 1.950596e-05 -3.185823e-08)	(-2.240553e-07 6.642463e-07 -6.725446e-11)	(-2.455110e-07 1.884171e-05 -3.179098e-08)
0.085         	(5.692893e-06 -1.419640e-05 -1.070666e-08)	(5.697721e-06 -1.417111e-05 -9.102793e-09)	(-4.828613e-09 -2.529272e-08 -1.603872e-09)	(1.798833e-05 2.557959e-06 -4.662929e-07)	(9.910438e-06 2.901268e-06 1.800090e-07)	(8.077893e-06 -3.433086e-07 -6.463019e-07)	(-4.695663e-07 1.950596e-05 -3.185823e-08)	(-2.240553e-07 6.642463e-07 -6.725446e-11)	(-2.455110e-07 1.884171e-05 -3.179098e-08)
0.09          	(2.791067e-06 -1.108103e-05 1.889734e-08)	(2.794147e-06 -1.105352e-05 1.558505e-08)	(-3.080042e-09 -2.751424e-08 3.312288e-09)	(-4.060703e-06 -1.939612e-06 -6.443780e-07)	(3.355971e-06 7.712809e-08 9.888240e-08)	(-7.416674e-06 -2.016740e-06 -7.432604e-07)	(-4.164341e-07 2.138202e-05 7.467530e-08)	(-5.343287e-08 1.007243e-06 9.675863e-11)	(-3.630012e-07 2.037478e-05 7.457854e-08)
0.09          	(2.791067e-06 -1.108103e-05 1.889734e-08)	(2.794147e-06 -1.105352e-05 1.558505e-08)	(-3.080042e-09 -2.751424e-08 3.312288e-09)	(-4.060703e-06 -1.939612e-06 -6.443780e-07)	(3.355971e-06 7.712809e-08 9.888240e-08)	(-7.416674e-06 -2.016740e-06 -7.432604e-07)	(-4.164341e-07 2.138202e-05 7.467530e-08)	(-5.343287e-08 1.007243e-06 9.675863e-11)	(-3.630012e-07 2.037478e-05 7.457854e-08)
0.09          	(2.791067e-06 -1.108103e-05 1.889734e-08)	(2.794147e-06 -1.105352e-05 1.558505e-08)	(-3.080042e-09 -2.751424e-08 3.312288e-09)	(-4.060703e-06 -1.939612e-06 -6.443780e-07)	(3.355971e-06 7.712809e-08 9.888240e-08)	(-7.416674e-06 -2.016740e-06 -7.432604e-07)	(-4.164341e-07 2.138202e-05 7.467530e-08)	(-5.343287e-08 1.007243e-06 9.675863e-11)	(-3.630012e-07 2.037478e-05 7.457854e-08)
0.095         	(1.278336e-05 -2.489744e-06 -9.949826e-09)	(1.278170e-05 -2.465686e-06 -8.984799e-09)	(1.661828e-09 -2.405855e-08 -9.650273e-10)	(-2.246065e-06 -6.265080e-06 -1.956760e-06)	(-8.308499e-06 -4.790229e-06 -6.546309e-07)	(6.062434e-06 -1.474851e-06 -1.302130e-06)	(6.874564e-09 2.268624e-05 -2.489734e-08)	(1.285362e-07 9.697503e-07 -1.450529e-10)	(-1.216616e-07 2.171649e-05 -2.475229e-08)
0.095         	(1.278336e-05 -2.489744e-06 -9.949826e-09)	(1.278170e-05 -2.465686e-06 -8.984799e-09)	(1.661828e-09 -2.405855e-08 -9.650273e-10)	(-2.246065e-06 -6.265080e-06 -1.956760e-06)	(-8.308499e-06 -4.790229e-06 -6.546309e-07)	(6.062434e-06 -1.474851e-06 -1.302130e-06)	(6.874564e-09 2.268624e-05 -2.489734e-08)	(1.285362e-07 9.697503e-07 -1.450529e-10)	(-1.216616e-07 2.171649e-05 -2.475229e-08)
0.095         	(1.278336e-05 -2.489744e-06 -9.949826e-09)	(1.278170e-05 -2.465686e-06 -8.984799e-09)	(1.661828e-09 -2.405855e-08 -9.650273e-10)	(-2.246065e-06 -6.265080e-06 -1.956760e-06)	(-8.308499e-06 -4.790229e-06 -6.546309e-07)	(6.062434e-06 -1.474851e-06 -1.302130e-06)	(6.874564e-09 2.268624e-05 -2.489734e-08)	(1.285362e-07 9.697503e-07 -1.450529e-10)	(-1.216616e-07 2.171649e-05 -2.475229e-08)
0.1           	(-8.488500e-06 -8.987143e-06 3.779141e-09)	(-8.491616e-06 -8.966022e-06 3.496738e-09)	(3.116117e-09 -2.112101e-08 2.824035e-10)	(9.350597e-06 -6.255240e-07 -9.147004e-07)	(2.296892e-06 1.463451e-06 -1.151818e-06)	(7.053705e-06 -2.088975e-06 2.371178e-07)	(-9.381829e-08 2.385241e-05 9.970458e-09)	(2.975871e-08 9.507019e-07 -1.997631e-11)	(-1.235770e-07 2.290171e-05 9.990434e-09)
0.1           	(-8.488500e-06 -8.987143e-06 3.779141e-09)	(-8.491616e-06 -8.966022e-06 3.496738e-09)	(3.116117e-09 -2.112101e-08 2.824035e-10)	(9.350597e-06 -6.255240e-07 -9.147004e-07)	(2.296892e-06 1.463451e-06 -1.151818e-06)	(7.053705e-06 -2.088975e-06 2.371178e-07)	(-9.381829e-08 2.385241e-05 9.970458e-09)	(2.975871e-08 9.507019e-07 -1.997631e-11)	(-1.235770e-07 2.290171e-05 9.990434e-09)
0.1           	(-8.488500e-06 -8.987143e-06 3.779141e-09)	(-8.491616e-06 -8.966022e-06 3.496738e-09)	(3.116117e-09 -2.112101e-08 2.824035e-10)	(9.350597e-06 -6.255240e-07 -9.147004e-07)	(2.296892e-06 1.463451e-06 -1.151818e-06)	(7.053705e-06 -2.088975e-06 2.371178e-07)	(-9.381829e-08 2.385241e-05 9.970458e-09)	(2.975871e-08 9.507019e-07 -1.997631e-11)	(-1.235770e-07 2.290171e-05 9.990434e-09)
0.105         	(3.301098e-06 -1.317437e-05 -1.714192e-08)	(3.299635e-06 -1.314940e-05 -1.514594e-08)	(1.463462e-09 -2.497234e-08 -1.995979e-09)	(1.386245e-05 7.208264e-07 -1.076915e-07)	(1.815034e-05 6.296575e-06 4.546860e-08)	(-4.287896e-06 -5.575748e-06 -1.531601e-07)	(-2.420656e-07 2.482686e-05 -4.675815e-08)	(-3.098279e-08 9.058325e-07 -6.189813e-11)	(-2.110828e-07 2.392103e-05 -4.669625e-08)
0.105         	(3.301098e-06 -1.317437e-05 -1.714192e-08)	(3.299635e-06 -1.314940e-05 -1.514594e-08)	(1.463462e-09 -2.497234e-08 -1.995979e-09)	(1.386245e-05 7.208264e-07 -1.076915e-07)	(1.815034e-05 6.296575e-06 4.546860e-08)	(-4.287896e-06 -5.575748e-06 -1.531601e-07)	(-2.420656e-07 2.482686e-05 -4.675815e-08)	(-3.098279e-08 9.058325e-07 -6.189813e-11)	(-2.110828e-07 2.392103e-05 -4.669625e-08)
0.105         	(3.301098e-06 -1.317437e-05 -1.714192e-08)	(3.299635e-06 -1.314940e-05 -1.514594e-08)	(1.463462e-09 -2.497234e-08 -1.995979e-09)	(1.386245e-05 7.208264e-07 -1.076915e-07)	(1.815034e-05 6.296575e-06 4.546860e-08)	(-4.287896e-06 -5.575748e-06 -1.531601e-07)	(-2.420656e-07 2.482686e-05 -4.675815e-08)	(-3.098279e-08 9.058325e-07 -6.189813e-11)	(-2.110828e-07 2.392103e-05 -4.669625e-08)
0.11          	(-8.634859e-06 -5.027924e-06 9.435350e-09)	(-8.632294e-06 -5.001906e-06 1.045334e-08)	(-2.564980e-09 -2.601753e-08 -1.017992e-09)	(-5.720230e-06 -6.718458e-06 4.204625e-06)	(-1.306937e-06 -4.968731e-06 1.239174e-06)	(-4.413293e-06 -1.749727e-06 2.965450e-06)	(4.810369e-07 2.690679e-05 -3.831662e-08)	(2.204334e-07 1.191526e-06 1.663991e-10)	(2.606036e-07 2.571526e-05 -3.848301e-08)
0.11          	(-8.634859e-06 -5.027924e-06 9.435350e-09)	(-8.632294e-06 -5.001906e-06 1.045334e-08)	(-2.564980e-09 -2.601753e-08 -1.017992e-09)	(-5.720230e-06 -6.718458e-06 4.204625e-06)	(-1.306937e-06 -4.968731e-06 1.239174e-06)	(-4.413293e-06 -1.749727e-06 2.965450e-06)	(4.810369e-07 2.690679e-05 -3.831662e-08)	(2.204334e-07 1.191526e-06 1.663991e-10)	(2.606036e-07 2.571526e-05 -3.848301e-08)
0.115         	(1.779938e-05 -2.993513e-05 8.949198e-09)	(1.779294e-05 -2.990253e-05 8.625558e-09)	(6.438236e-09 -3.260879e-08 3.236400e-10)	(-6.205421e-06 -1.230930e-05 6.084588e-07)	(-1.183793e-05 -5.448139e-06 -9.081956e-07)	(5.632511e-06 -6.861164e-06 1.516654e-06)	(-4.915241e-07 2.719834e-05 3.218132e-08)	(-2.278990e-07 8.153368e-07 -8.573148e-11)	(-2.636251e-07 2.638300e-05 3.226705e-08)
0.115         	(1.779938e-05 -2.993513e-05 8.949198e-09)	(1.779294e-05 -2.990253e-05 8.625558e-09)	(6.438236e-09 -3.260879e-08 3.236400e-10)	(-6.205421e-06 -1.230930e-05 6.084588e-07)	(-1.183793e-05 -5.448139e-06 -9.081956e-07)	(5.632511e-06 -6.861164e-06 1.516654e-06)	(-4.915241e-07 2.719834e-05 3.218132e-08)	(-2.278990e-07 8.153368e-07 -8.573148e-11)	(-2.636251e-07 2.638300e-05 3.226705e-08)
0.12          	(-4.723561e-06 -1.254665e-05 1.255402e-08)	(-4.731336e-06 -1.251258e-05 9.948662e-09)	(7.774304e-09 -3.406546e-08 2.605357e-09)	(-6.004454e-06 -4.432150e-06 2.316359e-06)	(-1.508778e-05 -3.175056e-06 -2.927802e-06)	(9.083325e-06 -1.257094e-06 5.244161e-06)	(1.911776e-07 2.881667e-05 4.791038e-08)	(1.797614e-07 1.086408e-06 -2.123343e-11)	(1.141618e-08 2.773026e-05 4.793161e-08)
0.12          	(-4.723561e-06 -1.254665e-05 1.255402e-08)	(-4.731336e-06 -1.251258e-05 9.948662e-09)	(7.774304e-09 -3.406546e-08 2.605357e-09)	(-6.004454e-06 -4.432150e-06 2.316359e-06)	(-1.508778e-05 -3.175056e-06 -2.927802e-06)	(9.083325e-06 -1.257094e-06 5.244161e-06)	(1.911776e-07 2.881667e-05 4.791038e-08)	(1.797614e-07 1.086408e-06 -2.123343e-11)	(1.141618e-08 2.773026e-05 4.793161e-08)
0.125         	(-3.204654e-08 -3.096068e-05 -1.109016e-08)	(-3.553934e-08 -3.092046e-05 -1.151895e-08)	(3.492804e-09 -4.022270e-08 4.287855e-10)	(1.050555e-05 1.366885e-06 6.076824e-06)	(3.759244e-06 2.799227e-06 1.153153e-07)	(6.746308e-06 -1.432341e-06 5.961508e-06)	(-1.338940e-07 2.903449e-05 1.170692e-08)	(-5.405633e-08 7.950307e-07 -8.710083e-11)	(-7.983764e-08 2.823946e-05 1.179402e-08)
0.125         	(-3.204654e-08 -3.096068e-05 -1.109016e-08)	(-3.553934e-08 -3.092046e-05 -1.151895e-08)	(3.492804e-09 -4.022270e-08 4.287855e-10)	(1.050555e-05 1.366885e-06 6.076824e-06)	(3.759244e-06 2.799227e-06 1.153153e-07)	(6.746308e-06 -1.432341e-06 5.961508e-06)	(-1.338940e-07 2.903449e-05 1.170692e-08)	(-5.405633e-08 7.950307e-07 -8.710083e-11)	(-7.983764e-08 2.823946e-05 1.179402e-08)
0.13          	(-1.717028e-05 -1.459407e-05 5.873551e-09)	(-1.716421e-05 -1.455029e-05 7.805536e-09)	(-6.069240e-09 -4.377974e-08 -1.931985e-09)	(1.224654e-05 -3.988340e-06 5.677342e-06)	(9.555481e-06 -2.778941e-06 3.544755e-07)	(2.691058e-06 -1.209399e-06 5.322867e-06)	(3.300652e-07 3.192753e-05 -5.517712e-08)	(1.586284e-07 1.410416e-06 -1.642710e-10)	(1.714368e-07 3.051712e-05 -5.501285e-08)
0.13          	(-1.717028e-05 -1.459407e-05 5.873551e-09)	(-1.716421e-05 -1.455029e-05 7.805536e-09)	(-6.069240e-09 -4.377974e-08 -1.931985e-09)	(1.224654e-05 -3.988340e-06 5.677342e-06)	(9.555481e-06 -2.778941e-06 3.544755e-07)	(2.691058e-06 -1.209399e-06 5.322867e-06)	(3.300652e-07 3.192753e-05 -5.517712e-08)	(1.586284e-07 1.410416e-06 -1.642710e-10)	(1.714368e-07 3.051712e-05 -5.501285e-08)
0.135         	(-2.126319e-05 -2.470849e-05 1.250263e-08)	(-2.124402e-05 -2.465878e-05 1.081478e-08)	(-1.917298e-08 -4.971248e-08 1.687847e-09)	(1.094951e-05 -4.087503e-06 3.892208e-06)	(-3.334008e-07 -2.107832e-06 2.904282e-07)	(1.128291e-05 -1.979671e-06 3.601779e-06)	(-2.368082e-07 3.304614e-05 5.037662e-08)	(-1.695916e-07 1.158852e-06 -7.351627e-11)	(-6.721660e-08 3.188729e-05 5.045014e-08)
0.135         	(-2.126319e-05 -2.470849e-05 1.250263e-08)	(-2.124402e-05 -2.465878e-05 1.081478e-08)	(-1.917298e-08 -4.971248e-08 1.687847e-09)	(1.094951e-05 -4.087503e-06 3.892208e-06)	(-3.334008e-07 -2.107832e-06 2.904282e-07)	(1.128291e-05 -1.979671e-06 3.601779e-06)	(-2.368082e-07 3.304614e-05 5.037662e-08)	(-1.695916e-07 1.158852e-06 -7.351627e-11)	(-6.721660e-08 3.188729e-05 5.045014e-08)
0.14          	(-1.002415e-05 -4.157547e-05 1.588378e-10)	(-1.000121e-05 -4.151223e-05 -9.788049e-10)	(-2.294395e-08 -6.323780e-08 1.137643e-09)	(1.516021e-05 -1.681613e-06 1.800211e-06)	(-2.285110e-06 -6.483008e-06 -9.928024e-08)	(1.744532e-05 4.801395e-06 1.899491e-06)	(-1.335210e-07 3.420749e-05 4.078365e-08)	(-2.113901e-08 1.103195e-06 3.484149e-11)	(-1.123819e-07 3.310430e-05 4.074880e-08)
0.14          	(-1.002415e-05 -4.157547e-05 1.588378e-10)	(-1.000121e-05 -4.151223e-05 -9.788049e-10)	(-2.294395e-08 -6.323780e-08 1.137643e-09)	(1.516021e-05 -1.681613e-06 1.800211e-06)	(-2.285110e-06 -6.483008e-06 -9.928024e-08)	(1.744532e-05 4.801395e-06 1.899491e-06)	(-1.335210e-07 3.420749e-05 4.078365e-08)	(-2.113901e-08 1.103195e-06 3.484149e-11)	(-1.123819e-07 3.310430e-05 4.074880e-08)
0.145         	(1.001129e-05 -2.776825e-05 -2.324851e-08)	(1.002811e-05 -2.769897e-05 -1.758501e-08)	(-1.681744e-08 -6.927811e-08 -5.663501e-09)	(2.745760e-05 5.705376e-06 3.520680e-06)	(1.160162e-05 1.495689e-06 4.742739e-07)	(1.585598e-05 4.209687e-06 3.046406e-06)	(-1.288901e-07 3.744819e-05 -1.513230e-07)	(3.189631e-09 1.702302e-06 -2.288575e-10)	(-1.320797e-07 3.574589e-05 -1.510941e-07)
0.145         	(1.001129e-05 -2.776825e-05 -2.324851e-08)	(1.002811e-05 -2.769897e-05 -1.758501e-08)	(-1.681744e-08 -6.927811e-08 -5.663501e-09)	(2.745760e-05 5.705376e-06 3.520680e-06)	(1.160162e-05 1.495689e-06 4.742739e-07)	(1.585598e-05 4.209687e-06 3.046406e-06)	(-1.288901e-07 3.744819e-05 -1.513230e-07)	(3.189631e-09 1.702302e-06 -2.288575e-10)	(-1.320797e-07 3.574589e-05 -1.510941e-07)
0.15          	(2.377570e-05 -2.992181e-05 2.755122e-08)	(2.377687e-05 -2.984706e-05 2.512740e-08)	(-1.164361e-09 -7.474889e-08 2.423820e-09)	(1.683117e-05 2.773621e-06 7.459257e-07)	(1.336270e-05 -4.757054e-06 -1.744286e-06)	(3.468469e-06 7.530675e-06 2.490212e-06)	(-3.888733e-07 3.811556e-05 7.298923e-08)	(-9.317497e-08 1.164814e-06 1.406926e-10)	(-2.956983e-07 3.695075e-05 7.284853e-08)
0.15          	(2.377570e-05 -2.992181e-05 2.755122e-08)	(2.377687e-05 -2.984706e-05 2.512740e-08)	(-1.164361e-09 -7.474889e-08 2.423820e-09)	(1.683117e-05 2.773621e-06 7.459257e-07)	(1.336270e-05 -4.757054e-06 -1.744286e-06)	(3.468469e-06 7.530675e-06 2.490212e-06)	(-3.888733e-07 3.811556e-05 7.298923e-08)	(-9.317497e-08 1.164814e-06 1.406926e-10)	(-2.956983e-07 3.695075e-05 7.284853e-08)
0.155         	(1.246357e-05 -2.587992e-05 1.001170e-08)	(1.245825e-05 -2.580368e-05 7.418086e-09)	(5.318450e-09 -7.623801e-08 2.593612e-09)	(1.689444e-05 1.228304e-05 4.250218e-06)	(7.844089e-06 5.946164e-06 2.397440e-06)	(9.050355e-06 6.336880e-06 1.852779e-06)	(-1.530412e-07 3.936242e-05 7.963308e-08)	(3.243218e-08 1.221832e-06 -1.474201e-10)	(-1.854733e-07 3.814059e-05 7.978050e-08)
0.155         	(1.246357e-05 -2.587992e-05 1.001170e-08)	(1.245825e-05 -2.580368e-05 7.418086e-09)	(5.318450e-09 -7.623801e-08 2.593612e-09)	(1.689444e-05 1.228304e-05 4.250218e-06)	(7.844089e-06 5.946164e-06 2.397440e-06)	(9.050355e-06 6.336880e-06 1.852779e-06)	(-1.530412e-07 3.936242e-05 7.963308e-08)	(3.243218e-08 1.221832e-06 -1.474201e-10)	(-1.854733e-07 3.814059e-05 7.978050e-08)
0.16          	(-5.335500e-07 -2.817004e-05 -4.599607e-09)	(-5.390985e-07 -2.808953e-05 -3.397416e-09)	(5.548551e-09 -8.051234e-08 -1.202191e-09)	(3.931391e-06 3.501734e-06 4.671024e-06)	(-6.066664e-06 -7.232197e-06 2.352665e-06)	(9.998055e-06 1.073393e-05 2.318360e-06)	(-9.765662e-08 4.174206e-05 -2.698789e-08)	(1.476508e-08 1.536854e-06 -2.884599e-11)	(-1.124217e-07 4.020520e-05 -2.695904e-08)
0.16          	(-5.335500e-07 -2.817004e-05 -4.599607e-09)	(-5.390985e-07 -2.808953e-05 -3.397416e-09)	(5.548551e-09 -8.051234e-08 -1.202191e-09)	(3.931391e-06 3.501734e-06 4.671024e-06)	(-6.066664e-06 -7.232197e-06 2.352665e-06)	(9.998055e-06 1.073393e-05 2.318360e-06)	(-9.765662e-08 4.174206e-05 -2.698789e-08)	(1.476508e-08 1.536854e-06 -2.884599e-11)	(-1.124217e-07 4.020520e-05 -2.695904e-08)
0.165         	(3.192327e-06 -3.633457e-05 4.106022e-10)	(3.186605e-06 -3.624621e-05 7.552705e-10)	(5.721792e-09 -8.835958e-08 -3.446683e-10)	(8.625435e-06 1.157851e-05 -4.531110e-07)	(9.120122e-07 3.344606e-06 -2.275301e-06)	(7.713422e-06 8.233905e-06 1.822190e-06)	(-5.763597e-07 4.466001e-05 -8.120476e-09)	(-1.586378e-07 1.810088e-06 -1.151336e-11)	(-4.177219e-07 4.284992e-05 -8.108962e-09)
0.165         	(3.192327e-06 -3.633457e-05 4.106022e-10)	(3.186605e-06 -3.624621e-05 7.552705e-10)	(5.721792e-09 -8.835958e-08 -3.446683e-10)	(8.625435e-06 1.157851e-05 -4.531110e-07)	(9.120122e-07 3.344606e-06 -2.275301e-06)	(7.713422e-06 8.233905e-06 1.822190e-06)	(-5.763597e-07 4.466001e-05 -8.120476e-09)	(-1.586378e-07 1.810088e-06 -1.151336e-11)	(-4.177219e-07 4.284992e-05 -8.108962e-09)
0.17          	(6.351608e-06 -2.932636e-05 2.718016e-08)	(6.342945e-06 -2.923568e-05 2.146274e-08)	(8.662607e-09 -9.068012e-08 5.717418e-09)	(-9.673458e-07 5.234707e-06 -1.548810e-06)	(5.305888e-06 -4.697824e-06 -1.351722e-06)	(-6.273234e-06 9.932531e-06 -1.970879e-07)	(1.052783e-07 4.547011e-05 1.513744e-07)	(1.748537e-07 1.340643e-06 -3.584039e-11)	(-6.957545e-08 4.412947e-05 1.514102e-07)