# Probe 0 (0.85 0 0.3)
#       Probe             0
#        Time
            0      -2.88517
            0      -2.88517
        0.005      -2.88338
        0.005      -2.88338
         0.01      -2.88313
         0.01      -2.88313
        0.015      -2.88321
        0.015      -2.88321
         0.02      -2.88288
         0.02      -2.88288
        0.025      -2.88306
        0.025      -2.88306
         0.03      -2.88275
         0.03      -2.88275
        0.035      -2.88252
        0.035      -2.88252
         0.04       -2.8827
         0.04       -2.8827
        0.045      -2.88242
        0.045      -2.88242
         0.05      -2.88234
         0.05      -2.88234
        0.055      -2.88216
        0.055      -2.88216
         0.06      -2.88222
         0.06      -2.88222
        0.065      -2.88216
        0.065      -2.88216
         0.07      -2.88207
         0.07      -2.88207
        0.075      -2.88189
        0.075      -2.88189
         0.08      -2.88171
         0.08      -2.88171
        0.085      -2.88187
        0.085      -2.88187
         0.09       -2.8816
         0.09       -2.8816
         0.09       -2.8816
        0.095      -2.88148
        0.095      -2.88148
        0.095      -2.88148
          0.1      -2.88134
          0.1      -2.88134
          0.1      -2.88134
        0.105      -2.88138
        0.105      -2.88138
        0.105      -2.88138
         0.11      -2.88113
         0.11      -2.88113
        0.115       -2.8811
        0.115       -2.8811
         0.12      -2.88087
         0.12      -2.88087
        0.125      -2.88091
        0.125      -2.88091
         0.13      -2.88066
         0.13      -2.88066
        0.135      -2.88065
        0.135      -2.88065
         0.14      -2.88046
         0.14      -2.88046
        0.145      -2.88031
        0.145      -2.88031
         0.15      -2.88026
         0.15      -2.88026
        0.155       -2.8801
        0.155       -2.8801
         0.16      -2.87989
         0.16      -2.87989
        0.165      -2.87981
        0.165      -2.87981
         0.17      -2.87967
         0.17      -2.87967
        0.175      -2.87951
        0.175      -2.87951
         0.18      -2.87926
         0.18      -2.87926
        0.185      -2.87924
        0.185      -2.87924
         0.19      -2.87909
         0.19      -2.87909
        0.195      -2.87882
        0.195      -2.87882
        0.195      -2.87882
          0.2      -2.87866
          0.2      -2.87866
        0.205      -2.87853
        0.205      -2.87853
        0.205      -2.87853
         0.21      -2.87838
         0.21      -2.87838
         0.21      -2.87838
        0.215      -2.87815
        0.215      -2.87815
         0.22      -2.87795
         0.22      -2.87795
         0.22      -2.87795
        0.225      -2.87785
        0.225      -2.87785
         0.23      -2.87777
         0.23      -2.87777
        0.235      -2.87742
        0.235      -2.87742
         0.24      -2.87715
         0.24      -2.87715
        0.245      -2.87714
        0.245      -2.87714
         0.25      -2.87706
         0.25      -2.87706
        0.255      -2.87651
        0.255      -2.87651
         0.26      -2.87632
         0.26      -2.87632
        0.265      -2.87653
        0.265      -2.87653
         0.27      -2.87598
         0.27      -2.87598
        0.275      -2.87576
        0.275      -2.87576
         0.28      -2.87586
         0.28      -2.87586
        0.285      -2.87562
        0.285      -2.87562
         0.29       -2.8753
         0.29       -2.8753
        0.295      -2.87498
        0.295      -2.87498
        0.295      -2.87498
          0.3      -2.87487
          0.3      -2.87487
        0.305      -2.87481
        0.305      -2.87481
         0.31       -2.8744
         0.31       -2.8744
         0.31       -2.8744
        0.315      -2.87427
        0.315      -2.87427
         0.32      -2.87411
         0.32      -2.87411
        0.325      -2.87379
        0.325      -2.87379
         0.33      -2.87364
         0.33      -2.87364
        0.335      -2.87352
        0.335      -2.87352
         0.34      -2.87344
         0.34      -2.87344
        0.345       -2.8731
        0.345       -2.8731
         0.35      -2.87287
         0.35      -2.87287
        0.355      -2.87258
        0.355      -2.87258
         0.36      -2.87256
         0.36      -2.87256
        0.365      -2.87238
        0.365      -2.87238
         0.37      -2.87219
         0.37      -2.87219
        0.375      -2.87197
        0.375      -2.87197
         0.38      -2.87176
         0.38      -2.87176
        0.385      -2.87173
        0.385      -2.87173
         0.39      -2.87136
         0.39      -2.87136
        0.395      -2.87107
        0.395      -2.87107
          0.4      -2.87092
          0.4      -2.87092
        0.405      -2.87078
        0.405      -2.87078
         0.41      -2.87061
         0.41      -2.87061
        0.415       -2.8704
        0.415       -2.8704
         0.42      -2.87024
         0.42      -2.87024
        0.425       -2.8701
        0.425       -2.8701
         0.43       -2.8699
         0.43       -2.8699
        0.435      -2.86972
        0.435      -2.86972
         0.44      -2.86956
         0.44      -2.86956
        0.445      -2.86944
        0.445      -2.86944
         0.45      -2.86917
         0.45      -2.86917
        0.455      -2.86904
        0.455      -2.86904
         0.46      -2.86892
         0.46      -2.86892
        0.465      -2.86882
        0.465      -2.86882
         0.47      -2.86866
         0.47      -2.86866
        0.475       -2.8685
        0.475       -2.8685
         0.48      -2.86838
         0.48      -2.86838
        0.485      -2.86825
        0.485      -2.86825
         0.49      -2.86808
         0.49      -2.86808
        0.495      -2.86798
        0.495      -2.86798
          0.5      -2.86782
          0.5      -2.86782
        0.505      -2.86772
        0.505      -2.86772
         0.51      -2.86756
         0.51      -2.86756
        0.515      -2.86747
        0.515      -2.86747
         0.52      -2.86735
         0.52      -2.86735
        0.525      -2.86727
        0.525      -2.86727
         0.53      -2.86713
         0.53      -2.86713
        0.535      -2.86704
        0.535      -2.86704
         0.54      -2.86694
         0.54      -2.86694
        0.545      -2.86687
        0.545      -2.86687
         0.55      -2.86676
         0.55      -2.86676
        0.555      -2.86668
        0.555      -2.86668
         0.56      -2.86659
         0.56      -2.86659
        0.565      -2.86653
        0.565      -2.86653
         0.57      -2.86643
         0.57      -2.86643
        0.575      -2.86639
        0.575      -2.86639
         0.58      -2.86625
         0.58      -2.86625
        0.585      -2.86624
        0.585      -2.86624
         0.59      -2.86619
         0.59      -2.86619
        0.595       -2.8661
        0.595       -2.8661
          0.6        -2.866
          0.6        -2.866
        0.605      -2.86599
        0.605      -2.86599
         0.61      -2.86589
         0.61      -2.86589
        0.615      -2.86591
        0.615      -2.86591
         0.62       -2.8658
         0.62       -2.8658
        0.625      -2.86583
        0.625      -2.86583
         0.63      -2.86571
         0.63      -2.86571
        0.635      -2.86575
        0.635      -2.86575
         0.64      -2.86566
         0.64      -2.86566
        0.645      -2.86565
        0.645      -2.86565
         0.65       -2.8656
         0.65       -2.8656
        0.655      -2.86557
        0.655      -2.86557
         0.66      -2.86552
         0.66      -2.86552
        0.665       -2.8655
        0.665       -2.8655
         0.67      -2.86547
         0.67      -2.86547
        0.675      -2.86543
        0.675      -2.86543
         0.68       -2.8654
         0.68       -2.8654
        0.685      -2.86538
        0.685      -2.86538
         0.69      -2.86534
         0.69      -2.86534
        0.695      -2.86532
        0.695      -2.86532
          0.7      -2.86529
          0.7      -2.86529
        0.705      -2.86529
        0.705      -2.86529
         0.71      -2.86526
         0.71      -2.86526
        0.715      -2.86524
        0.715      -2.86524
         0.72      -2.86522
         0.72      -2.86522
        0.725       -2.8652
        0.725       -2.8652
         0.73       -2.8652
         0.73       -2.8652
        0.735      -2.86519
        0.735      -2.86519
         0.74      -2.86517
         0.74      -2.86517
        0.745      -2.86515
        0.745      -2.86515
         0.75      -2.86518
         0.75      -2.86518
        0.755      -2.86514
        0.755      -2.86514
         0.76      -2.86517
         0.76      -2.86517
        0.765      -2.86513
        0.765      -2.86513
         0.77      -2.86513
         0.77      -2.86513
        0.775      -2.86511
        0.775      -2.86511
         0.78      -2.86516
         0.78      -2.86516
        0.785       -2.8651
        0.785       -2.8651
         0.79      -2.86511
         0.79      -2.86511
        0.795      -2.86506
        0.795      -2.86506
          0.8      -2.86508
          0.8      -2.86508
        0.805      -2.86506
        0.805      -2.86506
         0.81      -2.86508
         0.81      -2.86508
        0.815      -2.86501
        0.815      -2.86501
         0.82      -2.86504
         0.82      -2.86504
        0.825        -2.865
        0.825        -2.865
         0.83      -2.86501
         0.83      -2.86501
        0.835      -2.86496
        0.835      -2.86496
         0.84      -2.86495
         0.84      -2.86495
        0.845      -2.86492
        0.845      -2.86492
         0.85      -2.86491
         0.85      -2.86491
        0.855      -2.86486
        0.855      -2.86486
         0.86      -2.86483
         0.86      -2.86483
        0.865      -2.86475
        0.865      -2.86475
         0.87      -2.86473
         0.87      -2.86473
        0.875      -2.86466
        0.875      -2.86466
         0.88      -2.86457
         0.88      -2.86457
        0.885      -2.86449
        0.885      -2.86449
         0.89      -2.86441
         0.89      -2.86441
        0.895       -2.8643
        0.895       -2.8643
          0.9      -2.86421
          0.9      -2.86421
        0.905      -2.86406
        0.905      -2.86406
         0.91      -2.86393
         0.91      -2.86393
        0.915       -2.8638
        0.915       -2.8638
         0.92      -2.86366
         0.92      -2.86366
        0.925      -2.86347
        0.925      -2.86347
         0.93       -2.8633
         0.93       -2.8633
        0.935      -2.86308
        0.935      -2.86308
         0.94      -2.86288
         0.94      -2.86288
        0.945      -2.86266
        0.945      -2.86266
         0.95      -2.86241
         0.95      -2.86241
        0.955      -2.86212
        0.955      -2.86212
         0.96      -2.86184
         0.96      -2.86184
        0.965      -2.86153
        0.965      -2.86153
         0.97      -2.86118
         0.97      -2.86118
        0.975      -2.86083
        0.975      -2.86083
         0.98      -2.86043
         0.98      -2.86043
        0.985      -2.86002
        0.985      -2.86002
         0.99       -2.8596
         0.99       -2.8596
        0.995      -2.85914
        0.995      -2.85914
            1      -2.85862
            1      -2.85862
        1.005      -2.85617
        1.005      -2.85617
         1.01       -2.8555
         1.01       -2.8555
        1.015       -2.8548
        1.015       -2.8548
         1.02      -2.85413
         1.02      -2.85413
        1.025      -2.85336
        1.025      -2.85336
         1.03      -2.85258
         1.03      -2.85258
        1.035      -2.85177
        1.035      -2.85177
         1.04      -2.85093
         1.04      -2.85093
        1.045      -2.84999
        1.045      -2.84999
         1.05      -2.84906
         1.05      -2.84906
        1.055      -2.84803
        1.055      -2.84803
         1.06      -2.84695
         1.06      -2.84695
        1.065      -2.84589
        1.065      -2.84589
         1.07      -2.84467
         1.07      -2.84467
        1.075      -2.84359
        1.075      -2.84359
         1.08      -2.84229
         1.08      -2.84229
        1.085      -2.84086
        1.085      -2.84086
         1.09      -2.83965
         1.09      -2.83965
        1.095      -2.83819
        1.095      -2.83819
          1.1      -2.83668
          1.1      -2.83668
        1.105      -2.83513
        1.105      -2.83513
         1.11      -2.83325
         1.11      -2.83325
        1.115       -2.8321
        1.115       -2.8321
         1.12      -2.83006
         1.12      -2.83006
        1.125      -2.82837
        1.125      -2.82837
         1.13      -2.82643
         1.13      -2.82643
        1.135       -2.8245
        1.135       -2.8245
         1.14      -2.82252
         1.14      -2.82252
        1.145       -2.8203
        1.145       -2.8203
         1.15      -2.81831
         1.15      -2.81831
        1.155      -2.81602
        1.155      -2.81602
         1.16      -2.81383
         1.16      -2.81383
        1.165      -2.81126
        1.165      -2.81126
         1.17      -2.80892
         1.17      -2.80892
        1.175       -2.8063
        1.175       -2.8063
         1.18      -2.80378
         1.18      -2.80378
        1.185      -2.80089
        1.185      -2.80089
         1.19      -2.79823
         1.19      -2.79823
        1.195      -2.79521
        1.195      -2.79521
          1.2      -2.79238
          1.2      -2.79238
        1.205      -2.78908
        1.205      -2.78908
         1.21      -2.78619
         1.21      -2.78619
        1.215      -2.78269
        1.215      -2.78269
         1.22      -2.77952
         1.22      -2.77952
        1.225      -2.77585
        1.225      -2.77585
         1.23      -2.77251
         1.23      -2.77251
        1.235      -2.76868
        1.235      -2.76868
         1.24      -2.76511
         1.24      -2.76511
        1.245       -2.7609
        1.245       -2.7609
         1.25      -2.75728
         1.25      -2.75728
        1.255       -2.7531
        1.255       -2.7531
         1.26      -2.74864
         1.26      -2.74864
        1.265      -2.74475
        1.265      -2.74475
         1.27      -2.74005
         1.27      -2.74005
        1.275       -2.7355
        1.275       -2.7355
         1.28      -2.73096
         1.28      -2.73096
        1.285      -2.72616
        1.285      -2.72616
         1.29      -2.72121
         1.29      -2.72121
        1.295      -2.71591
        1.295      -2.71591
          1.3      -2.71106
          1.3      -2.71106
        1.305      -2.70544
        1.305      -2.70544
         1.31      -2.69978
         1.31      -2.69978
        1.315      -2.69479
        1.315      -2.69479
         1.32      -2.68835
         1.32      -2.68835
        1.325      -2.68278
        1.325      -2.68278
         1.33      -2.67644
         1.33      -2.67644
        1.335      -2.67023
        1.335      -2.67023
         1.34       -2.6639
         1.34       -2.6639
        1.345      -2.65702
        1.345      -2.65702
         1.35      -2.65044
         1.35      -2.65044
        1.355      -2.64344
        1.355      -2.64344
         1.36      -2.63616
         1.36      -2.63616
        1.365      -2.62888
        1.365      -2.62888
         1.37      -2.62129
         1.37      -2.62129
        1.375      -2.61355
        1.375      -2.61355
         1.38      -2.60554
         1.38      -2.60554
        1.385      -2.59737
        1.385      -2.59737
         1.39      -2.58892
         1.39      -2.58892
        1.395      -2.58016
        1.395      -2.58016
          1.4      -2.57131
          1.4      -2.57131
        1.405      -2.56215
        1.405      -2.56215
         1.41      -2.55268
         1.41      -2.55268
        1.415      -2.54303
        1.415      -2.54303
         1.42      -2.53314
         1.42      -2.53314
        1.425      -2.52304
         1.43      -2.51218
        1.435      -2.50206
         1.44      -2.49053
        1.445      -2.47904
         1.45       -2.4672
        1.455      -2.45502
         1.46      -2.44247
        1.465      -2.42956
         1.47      -2.41628
        1.475      -2.40259
         1.48      -2.38846
        1.485      -2.37393
         1.49      -2.35897
        1.495      -2.34356
          1.5      -2.32766
        1.505      -2.31129
         1.51      -2.29442
        1.515      -2.27705
         1.52      -2.25914
        1.525      -2.24068
         1.53      -2.22163
        1.535      -2.20201
         1.54      -2.18178
        1.545      -2.16094
         1.55      -2.13943
        1.555      -2.11725
         1.56      -2.09438
        1.565      -2.07081
         1.57      -2.04648
        1.575      -2.02138
         1.58      -1.99547
        1.585      -1.96876
         1.59      -1.94122
        1.595      -1.91281
          1.6       -1.8835
        1.605      -1.85327
         1.61      -1.82208
        1.615      -1.78986
         1.62      -1.75662
        1.625       -1.7223
         1.63      -1.68683
        1.635      -1.65022
         1.64      -1.61241
        1.645      -1.57334
         1.65      -1.53297
        1.655      -1.49128
         1.66      -1.44822
        1.665      -1.40372
         1.67      -1.35772
        1.675       -1.3102
         1.68       -1.2611
        1.685      -1.21037
         1.69      -1.15797
        1.695      -1.10382
          1.7      -1.04789
        1.705     -0.990175
         1.71     -0.930555
        1.715     -0.869003
         1.72     -0.805456
        1.725      -0.73985
         1.73     -0.672162
        1.735     -0.602329
         1.74     -0.530268
        1.745     -0.455946
         1.75     -0.379322
        1.755     -0.300345
         1.76     -0.218949
        1.765     -0.135095
         1.77    -0.0487581
        1.775     0.0401227
         1.78      0.131603
        1.785       0.22575
         1.79      0.322588
        1.795      0.422162
          1.8      0.524534
        1.805        0.6297
         1.81      0.737739
        1.815      0.848684
         1.82      0.962581
        1.825       1.07942
         1.83       1.19927
        1.835       1.32215
         1.84       1.44812
        1.845       1.57715
         1.85       1.70927
        1.855       1.84454
         1.86       1.98298
        1.865       2.12459
         1.87       2.26937
        1.875       2.41733
         1.88       2.56853
        1.885       2.72295
         1.89       2.88057
        1.895       3.04145
          1.9       3.20559
        1.905       3.37296
         1.91       3.54356
        1.915        3.7174
         1.92       3.89448
        1.925       4.07479
         1.93       4.25833
        1.935       4.44506
         1.94         4.635
        1.945       4.82814
         1.95       5.02443
        1.955       5.22389
         1.96       5.42652
        1.965       5.63228
         1.97       5.84114
        1.975       6.05311
         1.98       6.26822
        1.985       6.48642
         1.99       6.70765
        1.995       6.93191
            2       7.15924
        2.005       7.38587
         2.01       7.61885
        2.015       7.85477
         2.02        8.0936
        2.025       8.33529
         2.03       8.57982
        2.035       8.82713
         2.04       9.07726
        2.045       9.33017
         2.05       9.58581
        2.055       9.84413
         2.06       10.1052
        2.065        10.369
         2.07       10.6354
        2.075       10.9045
         2.08       11.1762
        2.085       11.4506
         2.09       11.7276
        2.095       12.0072
          2.1       12.2895
        2.105       12.5743
         2.11       12.8617
        2.115       13.1517
         2.12       13.4442
        2.125       13.7394
         2.13       14.0371
         2.13       14.0371
        2.135       14.3365
        2.135       14.3365
         2.14       14.6406
         2.14       14.6406
        2.145       14.9451
        2.145       14.9451
         2.15        15.253
         2.15        15.253
        2.155       15.5632
        2.155       15.5632
         2.16        15.876
         2.16        15.876
        2.165       16.1914
        2.165       16.1914
         2.17       16.5092
         2.17       16.5092
        2.175       16.8297
        2.175       16.8297
         2.18        17.153
         2.18        17.153
        2.185        17.479
        2.185        17.479
         2.19       17.8093
         2.19       17.8093
        2.195        18.144
        2.195        18.144
          2.2        18.483
          2.2        18.483
        2.205       18.8264
        2.205       18.8264
         2.21        19.174
         2.21        19.174
        2.215       19.5259
        2.215       19.5259
         2.22        19.882
         2.22        19.882
        2.225       20.2422
        2.225       20.2422
         2.23       20.6065
         2.23       20.6065
        2.235       20.9747
        2.235       20.9747
         2.24        21.347
         2.24        21.347
        2.245        21.723
        2.245        21.723
         2.25       22.1028
         2.25       22.1028
        2.255       22.4862
        2.255       22.4862
         2.26       22.8732
         2.26       22.8732
        2.265       23.2637
        2.265       23.2637
         2.27       23.6575
         2.27       23.6575
        2.275       24.0546
        2.275       24.0546
         2.28       24.4549
         2.28       24.4549
        2.285       24.8582
        2.285       24.8582
         2.29       25.2644
         2.29       25.2644
        2.295       25.6734
        2.295       25.6734
          2.3       26.0851
          2.3       26.0851
        2.305       26.4994
        2.305       26.4994
         2.31        26.916
         2.31        26.916
        2.315       27.3348
        2.315       27.3348
         2.32       27.7557
         2.32       27.7557
        2.325       28.1787
        2.325       28.1787
         2.33       28.6034
         2.33       28.6034
        2.335       29.0296
        2.335       29.0296
         2.34       29.4573
        2.345       29.8875
         2.35       30.3154
        2.355       30.7475
         2.36       31.1793
        2.365       31.6118
         2.37       32.0447
        2.375       32.4776
         2.38       32.9105
        2.385       33.3433
         2.39       33.7759
        2.395       34.2079
          2.4       34.6391
        2.405       35.0693
         2.41       35.4986
        2.415       35.9264
         2.42       36.3528
        2.425       36.7775
         2.43       37.2003
        2.435       37.6209
         2.44       38.0392
        2.445       38.4551
         2.45       38.8684
        2.455       39.2788
         2.46       39.6858
        2.465       40.0898
         2.47       40.4904
        2.475       40.8875
         2.48       41.2806
        2.485       41.6698
         2.49       42.0551
        2.495       42.4361
          2.5       42.8126
        2.505       43.1847
         2.51       43.5523
        2.515       43.9149
         2.52       44.2724
        2.525       44.6249
         2.53       44.9726
        2.535       45.3149
         2.54       45.6515
        2.545       45.9827
         2.55       46.3085
        2.555       46.6287
         2.56       46.9429
        2.565       47.2513
         2.57       47.5542
        2.575       47.8512
         2.58       48.1419
        2.585       48.4268
         2.59       48.7062
        2.595       48.9796
          2.6       49.2466
        2.605       49.5077
         2.61       49.7633
        2.615       50.0131
         2.62       50.2568
        2.625       50.4945
         2.63       50.7267
        2.635       50.9534
         2.64       51.1739
        2.645       51.3889
         2.65       51.5988
        2.655       51.8033
         2.66       52.0019
        2.665        52.195
         2.67       52.3838
        2.675       52.5677
         2.68       52.7462
        2.685       52.9194
         2.69       53.0886
        2.695       53.2538
          2.7       53.4141
        2.705       53.5698
         2.71        53.722
        2.715       53.8707
         2.72       54.0151
        2.725       54.1553
         2.73       54.2928
        2.735       54.4279
         2.74       54.5589
        2.745        54.686
         2.75       54.8111
        2.755       54.9347
         2.76        55.055
        2.765       55.1719
         2.77       55.2875
        2.775       55.4023
         2.78       55.5147
        2.785       55.6245
         2.79       55.7334
        2.795        55.842
          2.8       55.9483
        2.805       56.0521
         2.81       56.1563
        2.815       56.2621
         2.82       56.3668
        2.825       56.4693
         2.83       56.5719
         2.83       56.5719
        2.835       56.6781
         2.84       56.7774
         2.84       56.7774
        2.845       56.8845
         2.85        56.985
         2.85        56.985
        2.855       57.0934
         2.86       57.1927
         2.86       57.1927
        2.865       57.3008
         2.87       57.4061
         2.87       57.4061
        2.875       57.5151
         2.88       57.6196
        2.885       57.7309
         2.89       57.8386
         2.89       57.8386
        2.895       57.9526
          2.9       58.0628
        2.905       58.1787
         2.91       58.2922
        2.915       58.4101
         2.92       58.5287
        2.925        58.647
         2.93       58.7678
        2.935       58.8926
         2.94       59.0182
         2.94       59.0182
        2.945       59.1427
         2.95       59.2684
         2.95       59.2684
        2.955        59.401
         2.96       59.5304
         2.96       59.5304
        2.965       59.6645
         2.97       59.7986
        2.975       59.9349
         2.98       60.0738
        2.985       60.2122
         2.99       60.3524
        2.995       60.4968
            3       60.6427
        3.005       60.7869
         3.01        60.932
        3.015       61.0825
         3.02       61.2352
         3.02       61.2352
        3.025       61.3853
        3.025       61.3853
         3.03        61.536
        3.035       61.6916
        3.035       61.6916
         3.04       61.8465
         3.04       61.8465
        3.045       62.0007
        3.045       62.0007
         3.05       62.1596
        3.055       62.3181
         3.06       62.4766
        3.065       62.6355
        3.065       62.6355
         3.07       62.7913
         3.07       62.7913
        3.075       62.9589
        3.075       62.9589
         3.08       63.1179
        3.085       63.2766
        3.085       63.2766
         3.09       63.4397
         3.09       63.4397
        3.095       63.6026
        3.095       63.6026
          3.1       63.7635
        3.105       63.9253
         3.11       64.0872
        3.115       64.2505
         3.12       64.4133
        3.125        64.573
         3.13       64.7323
        3.135       64.8944
        3.135       64.8944
         3.14       65.0585
         3.14       65.0585
        3.145       65.2141
         3.15       65.3741
        3.155       65.5305
        3.155       65.5305
         3.16        65.688
         3.16        65.688
        3.165       65.8458
         3.17       66.0035
        3.175       66.1537
         3.18       66.3099
        3.185       66.4597
         3.19       66.6088
        3.195       66.7601
          3.2        66.911
        3.205       67.0567
         3.21       67.1984
        3.215       67.3412
        3.215       67.3412
         3.22       67.4846
         3.22       67.4846
        3.225       67.6262
        3.225       67.6262
         3.23       67.7639
        3.235       67.8994
        3.235       67.8994
         3.24       68.0368
         3.24       68.0368
        3.245       68.1641
        3.245       68.1641
         3.25       68.2981
        3.255       68.4282
         3.26       68.5566
        3.265       68.6818
        3.265       68.6818
         3.27       68.7991
         3.27       68.7991
        3.275       68.9251
         3.28        69.046
        3.285       69.1618
        3.285       69.1618
         3.29       69.2769
        3.295       69.3934
          3.3       69.5039
        3.305       69.6126
         3.31       69.7192
        3.315       69.8278
        3.315       69.8278
         3.32       69.9358
         3.32       69.9358
        3.325       70.0333
        3.325       70.0333
         3.33       70.1337
         3.33       70.1337
        3.335       70.2349
         3.34       70.3346
        3.345       70.4251
         3.35       70.5205
        3.355       70.6124
         3.36       70.7033
        3.365       70.7898
         3.37       70.8738
        3.375       70.9601
         3.38       71.0461
        3.385       71.1259
        3.385       71.1259
         3.39       71.1994
         3.39       71.1994
        3.395       71.2816
          3.4       71.3574
        3.405       71.4319
        3.405       71.4319
         3.41       71.5064
         3.41       71.5064
        3.415       71.5739
         3.42       71.6429
        3.425       71.7133
         3.43       71.7785
        3.435       71.8447
         3.44       71.9117
        3.445       71.9756
        3.445       71.9756