# Probe 0 (1.4485 0 0.2)
#       Probe             0
#        Time
            0       -1961.8
            0       -1961.8
       0.0025       485.778
       0.0025       485.778
        0.005       485.932
        0.005       485.932
       0.0075       485.938
       0.0075       485.938
         0.01       485.909
         0.01       485.909
       0.0125       485.908
       0.0125       485.908
        0.015       485.908
        0.015       485.908
       0.0175       485.907
       0.0175       485.907
         0.02       485.888
         0.02       485.888
       0.0225       485.861
       0.0225       485.861
        0.025       485.858
        0.025       485.858
       0.0275       485.846
       0.0275       485.846
         0.03       485.836
         0.03       485.836
       0.0325       485.816
       0.0325       485.816
        0.035       485.807
        0.035       485.807
       0.0375       485.796
       0.0375       485.796
         0.04       485.785
         0.04       485.785
       0.0425       485.775
       0.0425       485.775
        0.045       485.774
        0.045       485.774
       0.0475       485.773
       0.0475       485.773
         0.05        485.76
         0.05        485.76
       0.0525        485.75
       0.0525        485.75
        0.055       485.729
        0.055       485.729
       0.0575       485.707
       0.0575       485.707
         0.06       485.686
         0.06       485.686
       0.0625       485.672
       0.0625       485.672
        0.065       485.651
        0.065       485.651
       0.0675       485.626
       0.0675       485.626
         0.07       485.607
         0.07       485.607
       0.0725       485.586
       0.0725       485.586
        0.075       485.583
        0.075       485.583
       0.0775       485.578
       0.0775       485.578
         0.08       485.572
         0.08       485.572
       0.0825       485.545
       0.0825       485.545
        0.085       485.526
        0.085       485.526
       0.0875       485.508
       0.0875       485.508
         0.09         485.5
         0.09         485.5
       0.0925       485.476
       0.0925       485.476
        0.095       485.453
        0.095       485.453
       0.0975       485.428
       0.0975       485.428
          0.1       485.415
          0.1       485.415
          0.1       485.415
       0.1025       485.392
       0.1025       485.392
       0.1025       485.392
        0.105        485.37
        0.105        485.37
       0.1075       485.356
       0.1075       485.356
         0.11        485.36
         0.11        485.36
       0.1125       485.346
       0.1125       485.346
        0.115       485.338
        0.115       485.338
       0.1175       485.322
       0.1175       485.322
         0.12       485.323
         0.12       485.323
       0.1225         485.3
       0.1225         485.3
        0.125       485.288
        0.125       485.288
       0.1275       485.259
       0.1275       485.259
         0.13       485.258
         0.13       485.258
       0.1325       485.226
       0.1325       485.226
        0.135       485.215
        0.135       485.215
       0.1375       485.188
       0.1375       485.188
         0.14       485.203
         0.14       485.203
       0.1425        485.19
       0.1425        485.19
        0.145        485.19
        0.145        485.19
       0.1475       485.163
       0.1475       485.163
         0.15       485.168
         0.15       485.168
       0.1525       485.159
       0.1525       485.159
        0.155        485.16
        0.155        485.16
       0.1575       485.144
       0.1575       485.144
         0.16       485.138
         0.16       485.138
       0.1625       485.116
       0.1625       485.116
        0.165       485.092
        0.165       485.092
       0.1675       485.076
       0.1675       485.076
         0.17        485.08
         0.17        485.08
       0.1725       485.072
       0.1725       485.072
        0.175       485.055
        0.175       485.055
       0.1775       485.051
       0.1775       485.051
         0.18        485.06
         0.18        485.06
       0.1825       485.062
       0.1825       485.062
        0.185        485.05
        0.185        485.05
       0.1875       485.051
       0.1875       485.051
         0.19        485.05
         0.19        485.05
       0.1925       485.039
       0.1925       485.039
        0.195       485.021
        0.195       485.021
       0.1975       485.008
       0.1975       485.008
          0.2       485.003
          0.2       485.003
       0.2025       484.998
       0.2025       484.998
        0.205       485.002
        0.205       485.002
       0.2075       484.996
       0.2075       484.996
         0.21       484.988
         0.21       484.988
       0.2125       484.987
       0.2125       484.987
        0.215       484.991
        0.215       484.991
       0.2175        485.01
       0.2175        485.01
         0.22       485.004
         0.22       485.004
       0.2225        485.03
       0.2225        485.03
        0.225       485.026
        0.225       485.026
       0.2275        485.01
       0.2275        485.01
         0.23       484.991
         0.23       484.991
       0.2325       485.005
       0.2325       485.005
        0.235       485.015
        0.235       485.015
       0.2375       485.003
       0.2375       485.003
         0.24       485.001
         0.24       485.001
       0.2425       484.999
       0.2425       484.999
        0.245        485.01
        0.245        485.01
       0.2475       485.021
       0.2475       485.021
         0.25       485.028
         0.25       485.028
       0.2525       485.033
       0.2525       485.033
        0.255       485.029
        0.255       485.029
       0.2575       485.043
       0.2575       485.043
         0.26       485.028
         0.26       485.028
       0.2625       485.043
       0.2625       485.043
        0.265       485.028
        0.265       485.028
       0.2675        485.04
       0.2675        485.04
         0.27       485.031
         0.27       485.031
       0.2725       485.041
       0.2725       485.041
        0.275       485.036
        0.275       485.036
       0.2775       485.039
       0.2775       485.039
         0.28       485.031
         0.28       485.031
       0.2825       485.066
       0.2825       485.066
        0.285       485.078
        0.285       485.078
       0.2875       485.074
       0.2875       485.074
         0.29       485.081
         0.29       485.081
       0.2925       485.078
       0.2925       485.078
        0.295       485.095
        0.295       485.095
       0.2975       485.088
       0.2975       485.088
          0.3       485.101
          0.3       485.101
       0.3025       485.091
       0.3025       485.091
        0.305       485.109
        0.305       485.109
       0.3075       485.098
       0.3075       485.098
         0.31       485.111
         0.31       485.111
       0.3125       485.127
       0.3125       485.127
        0.315       485.162
        0.315       485.162
       0.3175       485.158
       0.3175       485.158
         0.32       485.168
         0.32       485.168
       0.3225       485.168
       0.3225       485.168
        0.325       485.209
        0.325       485.209
       0.3275       485.209
       0.3275       485.209
         0.33       485.243
         0.33       485.243
       0.3325       485.228
       0.3325       485.228
        0.335       485.256
        0.335       485.256
       0.3375       485.248
       0.3375       485.248
         0.34       485.286
         0.34       485.286
       0.3425       485.271
       0.3425       485.271
        0.345       485.307
        0.345       485.307
       0.3475       485.314
       0.3475       485.314
         0.35       485.364
         0.35       485.364
       0.3525       485.356
       0.3525       485.356
        0.355       485.383
        0.355       485.383
       0.3575       485.375
       0.3575       485.375
         0.36       485.414
         0.36       485.414
       0.3625       485.409
       0.3625       485.409
        0.365       485.436
        0.365       485.436
       0.3675        485.43
       0.3675        485.43
         0.37       485.445
         0.37       485.445
       0.3725       485.428
       0.3725       485.428
        0.375       485.448
        0.375       485.448
       0.3775       485.468
       0.3775       485.468
         0.38       485.497
         0.38       485.497
       0.3825       485.499
       0.3825       485.499
        0.385       485.513
        0.385       485.513
       0.3875       485.545
       0.3875       485.545
         0.39       485.557
         0.39       485.557
       0.3925       485.579
       0.3925       485.579
        0.395       485.596
        0.395       485.596
       0.3975       485.627
       0.3975       485.627
          0.4       485.629
          0.4       485.629
       0.4025        485.62
       0.4025        485.62
        0.405       485.634
        0.405       485.634
       0.4075       485.638
       0.4075       485.638
         0.41       485.667
         0.41       485.667
       0.4125       485.668
       0.4125       485.668
        0.415       485.702
        0.415       485.702
       0.4175       485.707
       0.4175       485.707
         0.42       485.739
         0.42       485.739
       0.4225       485.723
       0.4225       485.723
        0.425       485.745
        0.425       485.745
       0.4275       485.757
       0.4275       485.757
         0.43       485.805
         0.43       485.805
       0.4325       485.793
       0.4325       485.793
        0.435       485.792
        0.435       485.792
       0.4375       485.798
       0.4375       485.798
         0.44       485.813
         0.44       485.813
       0.4425       485.825
       0.4425       485.825
        0.445       485.834
        0.445       485.834
       0.4475       485.862
       0.4475       485.862
         0.45        485.87
         0.45        485.87
       0.4525       485.902
       0.4525       485.902
        0.455       485.926
        0.455       485.926
       0.4575       485.957
       0.4575       485.957
         0.46       485.975
         0.46       485.975
       0.4625       486.003
       0.4625       486.003
        0.465       486.007
        0.465       486.007
       0.4675       486.035
       0.4675       486.035
         0.47       486.036
         0.47       486.036
       0.4725       486.065
       0.4725       486.065
        0.475       486.077
        0.475       486.077
       0.4775       486.097
       0.4775       486.097
         0.48       486.112
         0.48       486.112
       0.4825       486.131
       0.4825       486.131
        0.485       486.157
        0.485       486.157
       0.4875       486.177
       0.4875       486.177
         0.49       486.215
         0.49       486.215
       0.4925       486.237
       0.4925       486.237
        0.495       486.263
        0.495       486.263
       0.4975       486.292
       0.4975       486.292
          0.5       486.328
          0.5       486.328
       0.5025        486.35
       0.5025        486.35
        0.505       486.373
        0.505       486.373
       0.5075       486.401
       0.5075       486.401
         0.51       486.431
         0.51       486.431
       0.5125       486.463
       0.5125       486.463
        0.515        486.49
        0.515        486.49
       0.5175       486.524
       0.5175       486.524
         0.52       486.575
         0.52       486.575
       0.5225       486.624
       0.5225       486.624
        0.525       486.648
        0.525       486.648
       0.5275       486.651
       0.5275       486.651
         0.53         486.7
         0.53         486.7
       0.5325       486.727
       0.5325       486.727
        0.535       486.742
        0.535       486.742
       0.5375       486.755
       0.5375       486.755
         0.54       486.769
         0.54       486.769
       0.5425       486.785
       0.5425       486.785
        0.545       486.791
        0.545       486.791
       0.5475        486.82
       0.5475        486.82
         0.55       486.842
         0.55       486.842
       0.5525       486.875
       0.5525       486.875
        0.555       486.909
        0.555       486.909
       0.5575        486.94
       0.5575        486.94
         0.56       486.973
         0.56       486.973
       0.5625           487
       0.5625           487
        0.565       487.032
        0.565       487.032
       0.5675       487.066
       0.5675       487.066
         0.57       487.098
         0.57       487.098
       0.5725       487.122
       0.5725       487.122
        0.575       487.138
        0.575       487.138
       0.5775       487.162
       0.5775       487.162
         0.58       487.175
         0.58       487.175
       0.5825       487.222
       0.5825       487.222
        0.585       487.255
        0.585       487.255
       0.5875       487.296
       0.5875       487.296
         0.59       487.325
         0.59       487.325
       0.5925       487.347
       0.5925       487.347
        0.595       487.375
        0.595       487.375
       0.5975       487.391
       0.5975       487.391
          0.6       487.439
          0.6       487.439
       0.6025       487.471
       0.6025       487.471
        0.605       487.507
        0.605       487.507
       0.6075       487.537
       0.6075       487.537
         0.61       487.573
         0.61       487.573
       0.6125        487.62
       0.6125        487.62
        0.615       487.679
        0.615       487.679
       0.6175       487.723
       0.6175       487.723
         0.62       487.789
         0.62       487.789
       0.6225       487.853
       0.6225       487.853
       0.6225       487.853
        0.625       487.927
        0.625       487.927
       0.6275       487.996
       0.6275       487.996
         0.63       488.038
         0.63       488.038
       0.6325       488.083
       0.6325       488.083
       0.6325       488.083
        0.635       488.147
        0.635       488.147
        0.635       488.147
       0.6375       488.219
       0.6375       488.219
       0.6375       488.219
         0.64        488.25
         0.64        488.25
         0.64        488.25
       0.6425       488.279
       0.6425       488.279
       0.6425       488.279
        0.645       488.343
        0.645       488.343
        0.645       488.343
       0.6475       488.411
       0.6475       488.411
       0.6475       488.411
         0.65       488.446
         0.65       488.446
         0.65       488.446
       0.6525       488.486
       0.6525       488.486
       0.6525       488.486
        0.655       488.565
        0.655       488.565
        0.655       488.565
       0.6575       488.627
       0.6575       488.627
       0.6575       488.627
         0.66       488.664
         0.66       488.664
         0.66       488.664
       0.6625        488.73
       0.6625        488.73
        0.665       488.815
        0.665       488.815
       0.6675       488.871
       0.6675       488.871
         0.67       488.913
         0.67       488.913
       0.6725        488.97
       0.6725        488.97
        0.675       489.039
        0.675       489.039
        0.675       489.039
       0.6775       489.099
       0.6775       489.099
       0.6775       489.099
         0.68       489.156
         0.68       489.156
         0.68       489.156
       0.6825       489.215
       0.6825       489.215
        0.685       489.273
        0.685       489.273
       0.6875       489.345
       0.6875       489.345
         0.69       489.399
         0.69       489.399
       0.6925       489.474
       0.6925       489.474
        0.695       489.551
        0.695       489.551
       0.6975       489.597
       0.6975       489.597
          0.7       489.637
          0.7       489.637
       0.7025       489.716
       0.7025       489.716
        0.705       489.757
        0.705       489.757
       0.7075       489.808
       0.7075       489.808
         0.71       489.844
         0.71       489.844
         0.71       489.844
       0.7125       489.908
       0.7125       489.908
        0.715       489.977
        0.715       489.977
        0.715       489.977
       0.7175        490.01
       0.7175        490.01
         0.72         490.1
         0.72         490.1
       0.7225       490.146
       0.7225       490.146
        0.725       490.245
        0.725       490.245
        0.725       490.245
       0.7275       490.345
       0.7275       490.345
       0.7275       490.345
         0.73       490.459
         0.73       490.459
       0.7325       490.527
       0.7325       490.527
       0.7325       490.527
        0.735       490.589
        0.735       490.589
       0.7375       490.694
       0.7375       490.694
         0.74       490.793
         0.74       490.793
       0.7425        490.87
       0.7425        490.87
        0.745       490.947
        0.745       490.947
       0.7475        491.05
       0.7475        491.05
       0.7475        491.05
         0.75       491.129
         0.75       491.129
         0.75       491.129
       0.7525       491.211
       0.7525       491.211
       0.7525       491.211
        0.755       491.298
        0.755       491.298
       0.7575       491.398
       0.7575       491.398
         0.76       491.497
         0.76       491.497
       0.7625       491.596
       0.7625       491.596
        0.765       491.687
        0.765       491.687
       0.7675       491.778
       0.7675       491.778
       0.7675       491.778
         0.77       491.884
         0.77       491.884
       0.7725       491.996
       0.7725       491.996
        0.775       492.099
        0.775       492.099
       0.7775       492.205
       0.7775       492.205
         0.78       492.336
         0.78       492.336
       0.7825       492.457
       0.7825       492.457
        0.785       492.569
        0.785       492.569
       0.7875       492.707
       0.7875       492.707
         0.79       492.844
         0.79       492.844
       0.7925       492.978
       0.7925       492.978
        0.795       493.115
        0.795       493.115
       0.7975       493.265
       0.7975       493.265
          0.8       493.392
          0.8       493.392
       0.8025       493.503
       0.8025       493.503
        0.805       493.624
        0.805       493.624
       0.8075       493.749
       0.8075       493.749
         0.81       493.877
         0.81       493.877
       0.8125        493.98
       0.8125        493.98
        0.815       494.115
        0.815       494.115
       0.8175       494.237
       0.8175       494.237
         0.82       494.379
         0.82       494.379
       0.8225       494.506
       0.8225       494.506
        0.825       494.634
        0.825       494.634
       0.8275       494.782
       0.8275       494.782
         0.83       494.937
         0.83       494.937
       0.8325       495.082
       0.8325       495.082
        0.835       495.234
        0.835       495.234
       0.8375       495.395
       0.8375       495.395
         0.84       495.549
         0.84       495.549
       0.8425       495.685
       0.8425       495.685
        0.845       495.832
        0.845       495.832
       0.8475       495.993
       0.8475       495.993
         0.85       496.148
         0.85       496.148
       0.8525         496.3
       0.8525         496.3
        0.855       496.463
        0.855       496.463
       0.8575        496.59
       0.8575        496.59
         0.86       496.745
         0.86       496.745
       0.8625       496.926
       0.8625       496.926
        0.865       497.075
        0.865       497.075
       0.8675       497.204
       0.8675       497.204
         0.87       497.375
         0.87       497.375
       0.8725       497.543
       0.8725       497.543
        0.875       497.701
        0.875       497.701
       0.8775       497.847
       0.8775       497.847
         0.88       498.018
         0.88       498.018
       0.8825        498.19
       0.8825        498.19
        0.885       498.373
        0.885       498.373
       0.8875       498.543
       0.8875       498.543
         0.89       498.732
         0.89       498.732
       0.8925        498.92
       0.8925        498.92
        0.895       499.145
        0.895       499.145
       0.8975       499.347
       0.8975       499.347
          0.9       499.564
          0.9       499.564
       0.9025        499.78
       0.9025        499.78
        0.905       499.994
        0.905       499.994
       0.9075       500.168
       0.9075       500.168
         0.91        500.37
         0.91        500.37
       0.9125       500.599
       0.9125       500.599
        0.915       500.805
        0.915       500.805
       0.9175       501.003
       0.9175       501.003
         0.92       501.224
         0.92       501.224
       0.9225       501.449
       0.9225       501.449
        0.925       501.658
        0.925       501.658
       0.9275        501.88
       0.9275        501.88
         0.93       502.117
         0.93       502.117
       0.9325       502.361
       0.9325       502.361
        0.935       502.599
        0.935       502.599
       0.9375       502.832
       0.9375       502.832
         0.94        503.05
         0.94        503.05
       0.9425       503.306
       0.9425       503.306
        0.945       503.551
        0.945       503.551
       0.9475       503.792
       0.9475       503.792
         0.95       504.043
         0.95       504.043
       0.9525       504.324
       0.9525       504.324
        0.955       504.571
        0.955       504.571
       0.9575       504.804
       0.9575       504.804
         0.96       505.059
         0.96       505.059
       0.9625       505.348
       0.9625       505.348
        0.965       505.613
        0.965       505.613
       0.9675        505.86
       0.9675        505.86
         0.97       506.117
         0.97       506.117
       0.9725       506.355
       0.9725       506.355
        0.975       506.596
        0.975       506.596
       0.9775       506.843
       0.9775       506.843
         0.98       507.114
         0.98       507.114
       0.9825       507.346
       0.9825       507.346
        0.985        507.61
        0.985        507.61
       0.9875       507.877
       0.9875       507.877
         0.99       508.138
         0.99       508.138
       0.9925       508.378
       0.9925       508.378
        0.995       508.648
        0.995       508.648
       0.9975       508.945
       0.9975       508.945
            1       509.229
            1       509.229
       1.0025       509.506
       1.0025       509.506
        1.005       509.811
        1.005       509.811
       1.0075       510.099
       1.0075       510.099
         1.01       510.379
         1.01       510.379
       1.0125       510.653
       1.0125       510.653
        1.015       510.943
        1.015       510.943
       1.0175       511.227
       1.0175       511.227
         1.02       511.515
         1.02       511.515
       1.0225       511.797
       1.0225       511.797
        1.025        512.09
        1.025        512.09
       1.0275       512.396
       1.0275       512.396
         1.03       512.688
         1.03       512.688
       1.0325       512.983
       1.0325       512.983
        1.035       513.299
        1.035       513.299
       1.0375       513.619
       1.0375       513.619
         1.04       513.914
         1.04       513.914
       1.0425       514.216
       1.0425       514.216
        1.045       514.532
        1.045       514.532
       1.0475       514.848
       1.0475       514.848
         1.05       515.142
         1.05       515.142
       1.0525       515.457
       1.0525       515.457
        1.055       515.808
        1.055       515.808
       1.0575       516.167
       1.0575       516.167
         1.06       516.491
         1.06       516.491
       1.0625       516.825
       1.0625       516.825
        1.065       517.183
        1.065       517.183
       1.0675       517.562
       1.0675       517.562
         1.07       517.915
         1.07       517.915
       1.0725       518.268
       1.0725       518.268
        1.075       518.623
        1.075       518.623
       1.0775       518.982
       1.0775       518.982
         1.08       519.313
         1.08       519.313
       1.0825       519.646
       1.0825       519.646
        1.085       519.992
        1.085       519.992
       1.0875       520.363
       1.0875       520.363
         1.09       520.727
         1.09       520.727
       1.0925       521.089
       1.0925       521.089
        1.095       521.449
        1.095       521.449
       1.0975       521.815
       1.0975       521.815
          1.1       522.168
          1.1       522.168
       1.1025       522.548
       1.1025       522.548
        1.105       522.934
        1.105       522.934
       1.1075        523.32
       1.1075        523.32
         1.11       523.711
         1.11       523.711
       1.1125       524.096
       1.1125       524.096
        1.115       524.463
        1.115       524.463
       1.1175       524.827
       1.1175       524.827
         1.12       525.222
         1.12       525.222
       1.1225       525.628
       1.1225       525.628
        1.125       526.016
        1.125       526.016
       1.1275       526.393
       1.1275       526.393
         1.13       526.781
         1.13       526.781
       1.1325        527.17
       1.1325        527.17
        1.135       527.549
        1.135       527.549
       1.1375       527.943
       1.1375       527.943
         1.14       528.337
         1.14       528.337
       1.1425       528.725
       1.1425       528.725
        1.145       529.097
        1.145       529.097
       1.1475       529.479
       1.1475       529.479
         1.15       529.871
         1.15       529.871
       1.1525       530.262
       1.1525       530.262
        1.155       530.631
        1.155       530.631
       1.1575        531.02
       1.1575        531.02
         1.16       531.447
         1.16       531.447
       1.1625       531.851
       1.1625       531.851
        1.165       532.221
        1.165       532.221
       1.1675       532.628
       1.1675       532.628
         1.17       533.083
         1.17       533.083
       1.1725       533.507
       1.1725       533.507
        1.175       533.897
        1.175       533.897
       1.1775       534.325
       1.1775       534.325
         1.18       534.757
         1.18       534.757
       1.1825       535.172
       1.1825       535.172
        1.185        535.56
        1.185        535.56
       1.1875       535.994
       1.1875       535.994
         1.19       536.422
         1.19       536.422
       1.1925       536.848
       1.1925       536.848
        1.195       537.268
        1.195       537.268
       1.1975       537.692
       1.1975       537.692
          1.2       538.145
          1.2       538.145
       1.2025       538.599
       1.2025       538.599
        1.205       539.025
        1.205       539.025
       1.2075       539.445
       1.2075       539.445
         1.21       539.901
         1.21       539.901
       1.2125       540.354
       1.2125       540.354
        1.215        540.81
        1.215        540.81
       1.2175       541.268
       1.2175       541.268
         1.22       541.728
         1.22       541.728
       1.2225       542.173
       1.2225       542.173
        1.225       542.631
        1.225       542.631
       1.2275       543.116
       1.2275       543.116
         1.23       543.586
         1.23       543.586
       1.2325       544.058
       1.2325       544.058
        1.235        544.55
        1.235        544.55
       1.2375       545.044
       1.2375       545.044
         1.24       545.509
         1.24       545.509
       1.2425       545.987
       1.2425       545.987
        1.245       546.469
        1.245       546.469
       1.2475       546.937
       1.2475       546.937
         1.25        547.41
         1.25        547.41
       1.2525       547.884
       1.2525       547.884
        1.255       548.354
        1.255       548.354
       1.2575        548.81
       1.2575        548.81
         1.26       549.269
         1.26       549.269
       1.2625       549.755
       1.2625       549.755
        1.265       550.252
        1.265       550.252
       1.2675       550.724
       1.2675       550.724
         1.27       551.192
         1.27       551.192
       1.2725       551.674
       1.2725       551.674
        1.275       552.185
        1.275       552.185
       1.2775       552.649
       1.2775       552.649
         1.28       553.115
         1.28       553.115
       1.2825       553.627
       1.2825       553.627
        1.285       554.137
        1.285       554.137
       1.2875       554.586
       1.2875       554.586
         1.29       555.023
         1.29       555.023
       1.2925       555.523
       1.2925       555.523
        1.295       556.036
        1.295       556.036
       1.2975       556.499
       1.2975       556.499
          1.3        556.96
          1.3        556.96