# Probe 0 (1.4485 0 0.1)
#       Probe             0
#        Time
            0      -977.242
            0      -977.242
       0.0025       1469.79
       0.0025       1469.79
        0.005       1469.87
        0.005       1469.87
       0.0075       1469.95
       0.0075       1469.95
         0.01       1469.95
         0.01       1469.95
       0.0125       1469.89
       0.0125       1469.89
        0.015       1469.88
        0.015       1469.88
       0.0175       1469.91
       0.0175       1469.91
         0.02       1469.89
         0.02       1469.89
       0.0225       1469.88
       0.0225       1469.88
        0.025       1469.89
        0.025       1469.89
       0.0275       1469.88
       0.0275       1469.88
         0.03       1469.87
         0.03       1469.87
       0.0325       1469.87
       0.0325       1469.87
        0.035       1469.86
        0.035       1469.86
       0.0375       1469.86
       0.0375       1469.86
         0.04       1469.86
         0.04       1469.86
       0.0425       1469.86
       0.0425       1469.86
        0.045       1469.86
        0.045       1469.86
       0.0475       1469.86
       0.0475       1469.86
         0.05       1469.86
         0.05       1469.86
       0.0525       1469.86
       0.0525       1469.86
        0.055       1469.87
        0.055       1469.87
       0.0575       1469.87
       0.0575       1469.87
         0.06       1469.85
         0.06       1469.85
       0.0625       1469.83
       0.0625       1469.83
        0.065       1469.82
        0.065       1469.82
       0.0675        1469.8
       0.0675        1469.8
         0.07        1469.8
         0.07        1469.8
       0.0725       1469.82
       0.0725       1469.82
        0.075       1469.84
        0.075       1469.84
       0.0775       1469.83
       0.0775       1469.83
         0.08       1469.82
         0.08       1469.82
       0.0825       1469.78
       0.0825       1469.78
        0.085       1469.79
        0.085       1469.79
       0.0875       1469.82
       0.0875       1469.82
         0.09       1469.84
         0.09       1469.84
       0.0925       1469.81
       0.0925       1469.81
        0.095       1469.78
        0.095       1469.78
       0.0975       1469.76
       0.0975       1469.76
          0.1       1469.79
          0.1       1469.79
          0.1       1469.79
       0.1025        1469.8
       0.1025        1469.8
       0.1025        1469.8
        0.105       1469.77
        0.105       1469.77
       0.1075       1469.74
       0.1075       1469.74
         0.11       1469.77
         0.11       1469.77
       0.1125        1469.8
       0.1125        1469.8
        0.115       1469.79
        0.115       1469.79
       0.1175       1469.77
       0.1175       1469.77
         0.12       1469.79
         0.12       1469.79
       0.1225       1469.82
       0.1225       1469.82
        0.125        1469.8
        0.125        1469.8
       0.1275       1469.75
       0.1275       1469.75
         0.13       1469.75
         0.13       1469.75
       0.1325       1469.77
       0.1325       1469.77
        0.135       1469.78
        0.135       1469.78
       0.1375       1469.75
       0.1375       1469.75
         0.14       1469.78
         0.14       1469.78
       0.1425       1469.79
       0.1425       1469.79
        0.145       1469.79
        0.145       1469.79
       0.1475       1469.74
       0.1475       1469.74
         0.15       1469.78
         0.15       1469.78
       0.1525       1469.81
       0.1525       1469.81
        0.155       1469.82
        0.155       1469.82
       0.1575       1469.78
       0.1575       1469.78
         0.16       1469.79
         0.16       1469.79
       0.1625       1469.79
       0.1625       1469.79
        0.165       1469.78
        0.165       1469.78
       0.1675       1469.78
       0.1675       1469.78
         0.17       1469.81
         0.17       1469.81
       0.1725       1469.78
       0.1725       1469.78
        0.175       1469.75
        0.175       1469.75
       0.1775       1469.78
       0.1775       1469.78
         0.18       1469.84
         0.18       1469.84
       0.1825       1469.83
       0.1825       1469.83
        0.185        1469.8
        0.185        1469.8
       0.1875       1469.81
       0.1875       1469.81
         0.19       1469.83
         0.19       1469.83
       0.1925       1469.81
       0.1925       1469.81
        0.195        1469.8
        0.195        1469.8
       0.1975        1469.8
       0.1975        1469.8
          0.2       1469.81
          0.2       1469.81
       0.2025       1469.82
       0.2025       1469.82
        0.205       1469.85
        0.205       1469.85
       0.2075       1469.82
       0.2075       1469.82
         0.21       1469.78
         0.21       1469.78
       0.2125       1469.79
       0.2125       1469.79
        0.215       1469.85
        0.215       1469.85
       0.2175       1469.86
       0.2175       1469.86
         0.22       1469.83
         0.22       1469.83
       0.2225       1469.86
       0.2225       1469.86
        0.225       1469.87
        0.225       1469.87
       0.2275       1469.86
       0.2275       1469.86
         0.23       1469.84
         0.23       1469.84
       0.2325       1469.87
       0.2325       1469.87
        0.235       1469.87
        0.235       1469.87
       0.2375       1469.85
       0.2375       1469.85
         0.24       1469.83
         0.24       1469.83
       0.2425       1469.84
       0.2425       1469.84
        0.245       1469.88
        0.245       1469.88
       0.2475       1469.92
       0.2475       1469.92
         0.25       1469.89
         0.25       1469.89
       0.2525       1469.85
       0.2525       1469.85
        0.255       1469.85
        0.255       1469.85
       0.2575       1469.92
       0.2575       1469.92
         0.26       1469.89
         0.26       1469.89
       0.2625        1469.9
       0.2625        1469.9
        0.265        1469.9
        0.265        1469.9
       0.2675       1469.93
       0.2675       1469.93
         0.27       1469.88
         0.27       1469.88
       0.2725       1469.89
       0.2725       1469.89
        0.275       1469.89
        0.275       1469.89
       0.2775        1469.9
       0.2775        1469.9
         0.28       1469.88
         0.28       1469.88
       0.2825       1469.95
       0.2825       1469.95
        0.285       1469.95
        0.285       1469.95
       0.2875       1469.94
       0.2875       1469.94
         0.29       1469.91
         0.29       1469.91
       0.2925       1469.94
       0.2925       1469.94
        0.295       1469.97
        0.295       1469.97
       0.2975       1469.99
       0.2975       1469.99
          0.3       1469.94
          0.3       1469.94
       0.3025       1469.92
       0.3025       1469.92
        0.305       1469.96
        0.305       1469.96
       0.3075       1469.98
       0.3075       1469.98
         0.31       1469.98
         0.31       1469.98
       0.3125          1470
       0.3125          1470
        0.315       1470.05
        0.315       1470.05
       0.3175       1470.02
       0.3175       1470.02
         0.32       1470.02
         0.32       1470.02
       0.3225       1470.04
       0.3225       1470.04
        0.325       1470.11
        0.325       1470.11
       0.3275       1470.09
       0.3275       1470.09
         0.33       1470.14
         0.33       1470.14
       0.3325       1470.11
       0.3325       1470.11
        0.335       1470.14
        0.335       1470.14
       0.3375       1470.12
       0.3375       1470.12
         0.34       1470.21
         0.34       1470.21
       0.3425       1470.16
       0.3425       1470.16
        0.345       1470.19
        0.345       1470.19
       0.3475        1470.2
       0.3475        1470.2
         0.35        1470.3
         0.35        1470.3
       0.3525       1470.24
       0.3525       1470.24
        0.355       1470.26
        0.355       1470.26
       0.3575       1470.24
       0.3575       1470.24
         0.36       1470.33
         0.36       1470.33
       0.3625       1470.29
       0.3625       1470.29
        0.365        1470.3
        0.365        1470.3
       0.3675       1470.27
       0.3675       1470.27
         0.37       1470.33
         0.37       1470.33
       0.3725       1470.31
       0.3725       1470.31
        0.375       1470.35
        0.375       1470.35
       0.3775       1470.34
       0.3775       1470.34
         0.38       1470.37
         0.38       1470.37
       0.3825       1470.32
       0.3825       1470.32
        0.385       1470.37
        0.385       1470.37
       0.3875       1470.42
       0.3875       1470.42
         0.39       1470.46
         0.39       1470.46
       0.3925       1470.44
       0.3925       1470.44
        0.395       1470.46
        0.395       1470.46
       0.3975       1470.48
       0.3975       1470.48
          0.4       1470.49
          0.4       1470.49
       0.4025       1470.48
       0.4025       1470.48
        0.405        1470.5
        0.405        1470.5
       0.4075       1470.49
       0.4075       1470.49
         0.41       1470.54
         0.41       1470.54
       0.4125       1470.52
       0.4125       1470.52
        0.415       1470.53
        0.415       1470.53
       0.4175       1470.53
       0.4175       1470.53
         0.42       1470.61
         0.42       1470.61
       0.4225       1470.55
       0.4225       1470.55
        0.425       1470.55
        0.425       1470.55
       0.4275       1470.56
       0.4275       1470.56
         0.43       1470.64
         0.43       1470.64
       0.4325       1470.58
       0.4325       1470.58
        0.435       1470.59
        0.435       1470.59
       0.4375       1470.61
       0.4375       1470.61
         0.44       1470.67
         0.44       1470.67
       0.4425       1470.62
       0.4425       1470.62
        0.445       1470.61
        0.445       1470.61
       0.4475       1470.59
       0.4475       1470.59
         0.45       1470.65
         0.45       1470.65
       0.4525       1470.69
       0.4525       1470.69
        0.455       1470.76
        0.455       1470.76
       0.4575       1470.75
       0.4575       1470.75
         0.46       1470.75
         0.46       1470.75
       0.4625       1470.74
       0.4625       1470.74
        0.465        1470.8
        0.465        1470.8
       0.4675       1470.79
       0.4675       1470.79
         0.47        1470.8
         0.47        1470.8
       0.4725       1470.81
       0.4725       1470.81
        0.475       1470.85
        0.475       1470.85
       0.4775       1470.84
       0.4775       1470.84
         0.48       1470.84
         0.48       1470.84
       0.4825       1470.86
       0.4825       1470.86
        0.485       1470.88
        0.485       1470.88
       0.4875       1470.89
       0.4875       1470.89
         0.49       1470.93
         0.49       1470.93
       0.4925       1470.96
       0.4925       1470.96
        0.495       1470.98
        0.495       1470.98
       0.4975       1470.99
       0.4975       1470.99
          0.5       1471.02
          0.5       1471.02
       0.5025       1471.05
       0.5025       1471.05
        0.505       1471.08
        0.505       1471.08
       0.5075       1471.08
       0.5075       1471.08
         0.51        1471.1
         0.51        1471.1
       0.5125       1471.16
       0.5125       1471.16
        0.515        1471.2
        0.515        1471.2
       0.5175        1471.2
       0.5175        1471.2
         0.52       1471.27
         0.52       1471.27
       0.5225       1471.34
       0.5225       1471.34
        0.525       1471.32
        0.525       1471.32
       0.5275       1471.28
       0.5275       1471.28
         0.53       1471.37
         0.53       1471.37
       0.5325       1471.43
       0.5325       1471.43
        0.535       1471.41
        0.535       1471.41
       0.5375       1471.38
       0.5375       1471.38
         0.54        1471.4
         0.54        1471.4
       0.5425       1471.44
       0.5425       1471.44
        0.545       1471.47
        0.545       1471.47
       0.5475        1471.5
       0.5475        1471.5
         0.55        1471.5
         0.55        1471.5
       0.5525       1471.52
       0.5525       1471.52
        0.555       1471.56
        0.555       1471.56
       0.5575        1471.6
       0.5575        1471.6
         0.56       1471.61
         0.56       1471.61
       0.5625       1471.66
       0.5625       1471.66
        0.565       1471.73
        0.565       1471.73
       0.5675       1471.76
       0.5675       1471.76
         0.57       1471.77
         0.57       1471.77
       0.5725        1471.8
       0.5725        1471.8
        0.575       1471.84
        0.575       1471.84
       0.5775       1471.86
       0.5775       1471.86
         0.58        1471.9
         0.58        1471.9
       0.5825       1471.97
       0.5825       1471.97
        0.585       1471.99
        0.585       1471.99
       0.5875          1472
       0.5875          1472
         0.59       1472.02
         0.59       1472.02
       0.5925       1472.05
       0.5925       1472.05
        0.595       1472.09
        0.595       1472.09
       0.5975       1472.13
       0.5975       1472.13
          0.6        1472.2
          0.6        1472.2
       0.6025       1472.21
       0.6025       1472.21
        0.605       1472.24
        0.605       1472.24
       0.6075       1472.28
       0.6075       1472.28
         0.61       1472.36
         0.61       1472.36
       0.6125        1472.4
       0.6125        1472.4
        0.615       1472.44
        0.615       1472.44
       0.6175       1472.47
       0.6175       1472.47
         0.62       1472.53
         0.62       1472.53
       0.6225        1472.6
       0.6225        1472.6
       0.6225        1472.6
        0.625       1472.71
        0.625       1472.71
       0.6275       1472.81
       0.6275       1472.81
         0.63       1472.84
         0.63       1472.84
       0.6325       1472.86
       0.6325       1472.86
       0.6325       1472.86
        0.635       1472.94
        0.635       1472.94
        0.635       1472.94
       0.6375       1473.02
       0.6375       1473.02
       0.6375       1473.02
         0.64       1473.03
         0.64       1473.03
         0.64       1473.03
       0.6425       1473.03
       0.6425       1473.03
       0.6425       1473.03
        0.645       1473.15
        0.645       1473.15
        0.645       1473.15
       0.6475       1473.25
       0.6475       1473.25
       0.6475       1473.25
         0.65       1473.24
         0.65       1473.24
         0.65       1473.24
       0.6525       1473.25
       0.6525       1473.25
       0.6525       1473.25
        0.655       1473.34
        0.655       1473.34
        0.655       1473.34
       0.6575       1473.43
       0.6575       1473.43
       0.6575       1473.43
         0.66       1473.47
         0.66       1473.47
         0.66       1473.47
       0.6625       1473.56
       0.6625       1473.56
        0.665       1473.64
        0.665       1473.64
       0.6675        1473.7
       0.6675        1473.7
         0.67       1473.74
         0.67       1473.74
       0.6725       1473.79
       0.6725       1473.79
        0.675       1473.88
        0.675       1473.88
        0.675       1473.88
       0.6775       1473.97
       0.6775       1473.97
       0.6775       1473.97
         0.68       1474.03
         0.68       1474.03
         0.68       1474.03
       0.6825       1474.08
       0.6825       1474.08
        0.685       1474.15
        0.685       1474.15
       0.6875       1474.27
       0.6875       1474.27
         0.69       1474.33
         0.69       1474.33
       0.6925       1474.41
       0.6925       1474.41
        0.695       1474.49
        0.695       1474.49
       0.6975       1474.52
       0.6975       1474.52
          0.7       1474.56
          0.7       1474.56
       0.7025       1474.68
       0.7025       1474.68
        0.705       1474.73
        0.705       1474.73
       0.7075       1474.77
       0.7075       1474.77
         0.71       1474.82
         0.71       1474.82
         0.71       1474.82
       0.7125        1474.9
       0.7125        1474.9
        0.715       1474.98
        0.715       1474.98
        0.715       1474.98
       0.7175       1475.05
       0.7175       1475.05
         0.72       1475.13
         0.72       1475.13
       0.7225       1475.18
       0.7225       1475.18
        0.725        1475.3
        0.725        1475.3
        0.725        1475.3
       0.7275       1475.42
       0.7275       1475.42
       0.7275       1475.42
         0.73       1475.54
         0.73       1475.54
       0.7325       1475.58
       0.7325       1475.58
       0.7325       1475.58
        0.735       1475.67
        0.735       1475.67
       0.7375       1475.81
       0.7375       1475.81
         0.74       1475.94
         0.74       1475.94
       0.7425          1476
       0.7425          1476
        0.745       1476.07
        0.745       1476.07
       0.7475       1476.17
       0.7475       1476.17
       0.7475       1476.17
         0.75       1476.28
         0.75       1476.28
         0.75       1476.28
       0.7525        1476.4
       0.7525        1476.4
       0.7525        1476.4
        0.755       1476.49
        0.755       1476.49
       0.7575       1476.57
       0.7575       1476.57
         0.76       1476.65
         0.76       1476.65
       0.7625       1476.74
       0.7625       1476.74
        0.765       1476.82
        0.765       1476.82
       0.7675       1476.91
       0.7675       1476.91
       0.7675       1476.91
         0.77       1477.09
         0.77       1477.09
       0.7725       1477.24
       0.7725       1477.24
        0.775        1477.3
        0.775        1477.3
       0.7775       1477.37
       0.7775       1477.37
         0.78       1477.54
         0.78       1477.54
       0.7825       1477.67
       0.7825       1477.67
        0.785       1477.75
        0.785       1477.75
       0.7875       1477.89
       0.7875       1477.89
         0.79       1478.08
         0.79       1478.08
       0.7925       1478.22
       0.7925       1478.22
        0.795       1478.32
        0.795       1478.32
       0.7975       1478.48
       0.7975       1478.48
          0.8       1478.63
          0.8       1478.63
       0.8025       1478.73
       0.8025       1478.73
        0.805       1478.86
        0.805       1478.86
       0.8075       1479.02
       0.8075       1479.02
         0.81       1479.11
         0.81       1479.11
       0.8125       1479.17
       0.8125       1479.17
        0.815       1479.31
        0.815       1479.31
       0.8175       1479.48
       0.8175       1479.48
         0.82       1479.63
         0.82       1479.63
       0.8225       1479.73
       0.8225       1479.73
        0.825       1479.84
        0.825       1479.84
       0.8275          1480
       0.8275          1480
         0.83       1480.16
         0.83       1480.16
       0.8325       1480.33
       0.8325       1480.33
        0.835       1480.47
        0.835       1480.47
       0.8375       1480.63
       0.8375       1480.63
         0.84       1480.79
         0.84       1480.79
       0.8425       1480.93
       0.8425       1480.93
        0.845       1481.07
        0.845       1481.07
       0.8475       1481.23
       0.8475       1481.23
         0.85        1481.4
         0.85        1481.4
       0.8525       1481.57
       0.8525       1481.57
        0.855       1481.74
        0.855       1481.74
       0.8575       1481.86
       0.8575       1481.86
         0.86       1482.01
         0.86       1482.01
       0.8625       1482.21
       0.8625       1482.21
        0.865       1482.33
        0.865       1482.33
       0.8675       1482.46
       0.8675       1482.46
         0.87       1482.61
         0.87       1482.61
       0.8725       1482.81
       0.8725       1482.81
        0.875       1482.96
        0.875       1482.96
       0.8775       1483.12
       0.8775       1483.12
         0.88       1483.26
         0.88       1483.26
       0.8825       1483.46
       0.8825       1483.46
        0.885       1483.66
        0.885       1483.66
       0.8875       1483.83
       0.8875       1483.83
         0.89       1483.96
         0.89       1483.96
       0.8925       1484.16
       0.8925       1484.16
        0.895        1484.4
        0.895        1484.4
       0.8975       1484.62
       0.8975       1484.62
          0.9        1484.8
          0.9        1484.8
       0.9025       1485.02
       0.9025       1485.02
        0.905       1485.22
        0.905       1485.22
       0.9075       1485.39
       0.9075       1485.39
         0.91       1485.59
         0.91       1485.59
       0.9125       1485.81
       0.9125       1485.81
        0.915       1486.01
        0.915       1486.01
       0.9175       1486.19
       0.9175       1486.19
         0.92       1486.39
         0.92       1486.39
       0.9225       1486.61
       0.9225       1486.61
        0.925       1486.83
        0.925       1486.83
       0.9275       1487.02
       0.9275       1487.02
         0.93        1487.2
         0.93        1487.2
       0.9325       1487.43
       0.9325       1487.43
        0.935       1487.69
        0.935       1487.69
       0.9375       1487.87
       0.9375       1487.87
         0.94       1488.09
         0.94       1488.09
       0.9425       1488.37
       0.9425       1488.37
        0.945       1488.64
        0.945       1488.64
       0.9475        1488.8
       0.9475        1488.8
         0.95       1489.03
         0.95       1489.03
       0.9525       1489.31
       0.9525       1489.31
        0.955       1489.54
        0.955       1489.54
       0.9575       1489.73
       0.9575       1489.73
         0.96       1490.01
         0.96       1490.01
       0.9625        1490.3
       0.9625        1490.3
        0.965       1490.55
        0.965       1490.55
       0.9675       1490.77
       0.9675       1490.77
         0.97       1490.99
         0.97       1490.99
       0.9725       1491.22
       0.9725       1491.22
        0.975       1491.45
        0.975       1491.45
       0.9775       1491.75
       0.9775       1491.75
         0.98       1491.96
         0.98       1491.96
       0.9825       1492.14
       0.9825       1492.14
        0.985       1492.36
        0.985       1492.36
       0.9875       1492.67
       0.9875       1492.67
         0.99       1492.92
         0.99       1492.92
       0.9925       1493.14
       0.9925       1493.14
        0.995       1493.41
        0.995       1493.41
       0.9975       1493.69
       0.9975       1493.69
            1       1493.95
            1       1493.95
       1.0025       1494.21
       1.0025       1494.21
        1.005       1494.51
        1.005       1494.51
       1.0075       1494.79
       1.0075       1494.79
         1.01       1495.06
         1.01       1495.06
       1.0125       1495.33
       1.0125       1495.33
        1.015        1495.6
        1.015        1495.6
       1.0175       1495.85
       1.0175       1495.85
         1.02       1496.11
         1.02       1496.11
       1.0225       1496.38
       1.0225       1496.38
        1.025       1496.69
        1.025       1496.69
       1.0275       1497.01
       1.0275       1497.01
         1.03       1497.29
         1.03       1497.29
       1.0325       1497.53
       1.0325       1497.53
        1.035       1497.81
        1.035       1497.81
       1.0375       1498.08
       1.0375       1498.08
         1.04       1498.37
         1.04       1498.37
       1.0425       1498.66
       1.0425       1498.66
        1.045       1498.97
        1.045       1498.97
       1.0475       1499.27
       1.0475       1499.27
         1.05       1499.55
         1.05       1499.55
       1.0525       1499.83
       1.0525       1499.83
        1.055       1500.17
        1.055       1500.17
       1.0575       1500.52
       1.0575       1500.52
         1.06       1500.83
         1.06       1500.83
       1.0625       1501.09
       1.0625       1501.09
        1.065       1501.45
        1.065       1501.45
       1.0675       1501.83
       1.0675       1501.83
         1.07       1502.15
         1.07       1502.15
       1.0725       1502.43
       1.0725       1502.43
        1.075       1502.75
        1.075       1502.75
       1.0775       1503.11
       1.0775       1503.11
         1.08       1503.45
         1.08       1503.45
       1.0825       1503.76
       1.0825       1503.76
        1.085       1504.08
        1.085       1504.08
       1.0875        1504.4
       1.0875        1504.4
         1.09       1504.74
         1.09       1504.74
       1.0925       1505.05
       1.0925       1505.05
        1.095       1505.39
        1.095       1505.39
       1.0975       1505.71
       1.0975       1505.71
          1.1       1506.04
          1.1       1506.04
       1.1025       1506.38
       1.1025       1506.38
        1.105       1506.76
        1.105       1506.76
       1.1075       1507.12
       1.1075       1507.12
         1.11       1507.47
         1.11       1507.47
       1.1125       1507.84
       1.1125       1507.84
        1.115       1508.21
        1.115       1508.21
       1.1175       1508.53
       1.1175       1508.53
         1.12        1508.9
         1.12        1508.9
       1.1225       1509.27
       1.1225       1509.27
        1.125       1509.61
        1.125       1509.61
       1.1275       1509.93
       1.1275       1509.93
         1.13        1510.3
         1.13        1510.3
       1.1325        1510.7
       1.1325        1510.7
        1.135       1511.08
        1.135       1511.08
       1.1375       1511.43
       1.1375       1511.43
         1.14       1511.81
         1.14       1511.81
       1.1425       1512.14
       1.1425       1512.14
        1.145       1512.49
        1.145       1512.49
       1.1475       1512.84
       1.1475       1512.84
         1.15       1513.24
         1.15       1513.24
       1.1525       1513.58
       1.1525       1513.58
        1.155       1513.91
        1.155       1513.91
       1.1575       1514.26
       1.1575       1514.26
         1.16       1514.69
         1.16       1514.69
       1.1625       1515.06
       1.1625       1515.06
        1.165       1515.38
        1.165       1515.38
       1.1675       1515.79
       1.1675       1515.79
         1.17       1516.27
         1.17       1516.27
       1.1725       1516.65
       1.1725       1516.65
        1.175          1517
        1.175          1517
       1.1775       1517.37
       1.1775       1517.37
         1.18       1517.78
         1.18       1517.78
       1.1825       1518.15
       1.1825       1518.15
        1.185       1518.54
        1.185       1518.54
       1.1875       1518.93
       1.1875       1518.93
         1.19       1519.31
         1.19       1519.31
       1.1925       1519.74
       1.1925       1519.74
        1.195       1520.17
        1.195       1520.17
       1.1975       1520.53
       1.1975       1520.53
          1.2       1520.95
          1.2       1520.95
       1.2025       1521.39
       1.2025       1521.39
        1.205       1521.75
        1.205       1521.75
       1.2075       1522.08
       1.2075       1522.08
         1.21       1522.53
         1.21       1522.53
       1.2125       1522.97
       1.2125       1522.97
        1.215       1523.37
        1.215       1523.37
       1.2175       1523.79
       1.2175       1523.79
         1.22       1524.23
         1.22       1524.23
       1.2225       1524.65
       1.2225       1524.65
        1.225       1525.08
        1.225       1525.08
       1.2275       1525.54
       1.2275       1525.54
         1.23       1525.96
         1.23       1525.96
       1.2325       1526.36
       1.2325       1526.36
        1.235       1526.81
        1.235       1526.81
       1.2375       1527.26
       1.2375       1527.26
         1.24        1527.7
         1.24        1527.7
       1.2425       1528.13
       1.2425       1528.13
        1.245       1528.57
        1.245       1528.57
       1.2475       1529.02
       1.2475       1529.02
         1.25       1529.46
         1.25       1529.46
       1.2525        1529.9
       1.2525        1529.9
        1.255       1530.31
        1.255       1530.31
       1.2575       1530.72
       1.2575       1530.72
         1.26       1531.16
         1.26       1531.16
       1.2625        1531.6
       1.2625        1531.6
        1.265       1532.03
        1.265       1532.03
       1.2675       1532.46
       1.2675       1532.46
         1.27       1532.85
         1.27       1532.85
       1.2725       1533.33
       1.2725       1533.33
        1.275       1533.84
        1.275       1533.84
       1.2775       1534.32
       1.2775       1534.32
         1.28       1534.73
         1.28       1534.73
       1.2825       1535.19
       1.2825       1535.19
        1.285       1535.66
        1.285       1535.66
       1.2875       1536.07
       1.2875       1536.07
         1.29       1536.46
         1.29       1536.46
       1.2925       1536.92
       1.2925       1536.92
        1.295       1537.41
        1.295       1537.41
       1.2975       1537.82
       1.2975       1537.82
          1.3       1538.26
          1.3       1538.26