# Probe 0 (1.4485 0 0.01)
#       Probe             0
#        Time
            0      -118.256
            0      -118.256
       0.0025       2328.54
       0.0025       2328.54
        0.005       2328.66
        0.005       2328.66
       0.0075       2329.09
       0.0075       2329.09
         0.01       2329.06
         0.01       2329.06
       0.0125       2328.69
       0.0125       2328.69
        0.015       2328.77
        0.015       2328.77
       0.0175       2328.93
       0.0175       2328.93
         0.02       2328.79
         0.02       2328.79
       0.0225       2328.78
       0.0225       2328.78
        0.025       2328.88
        0.025       2328.88
       0.0275       2328.82
       0.0275       2328.82
         0.03       2328.79
         0.03       2328.79
       0.0325       2328.85
       0.0325       2328.85
        0.035       2328.81
        0.035       2328.81
       0.0375       2328.78
       0.0375       2328.78
         0.04       2328.83
         0.04       2328.83
       0.0425       2328.82
       0.0425       2328.82
        0.045       2328.79
        0.045       2328.79
       0.0475       2328.81
       0.0475       2328.81
         0.05       2328.79
         0.05       2328.79
       0.0525       2328.78
       0.0525       2328.78
        0.055       2328.84
        0.055       2328.84
       0.0575       2328.86
       0.0575       2328.86
         0.06       2328.84
         0.06       2328.84
       0.0625       2328.84
       0.0625       2328.84
        0.065       2328.79
        0.065       2328.79
       0.0675        2328.7
       0.0675        2328.7
         0.07       2328.69
         0.07       2328.69
       0.0725       2328.77
       0.0725       2328.77
        0.075       2328.87
        0.075       2328.87
       0.0775       2328.91
       0.0775       2328.91
         0.08       2328.81
         0.08       2328.81
       0.0825       2328.66
       0.0825       2328.66
        0.085       2328.68
        0.085       2328.68
       0.0875       2328.84
       0.0875       2328.84
         0.09       2328.92
         0.09       2328.92
       0.0925       2328.84
       0.0925       2328.84
        0.095       2328.68
        0.095       2328.68
       0.0975       2328.67
       0.0975       2328.67
          0.1       2328.84
          0.1       2328.84
          0.1       2328.84
       0.1025       2328.91
       0.1025       2328.91
       0.1025       2328.91
        0.105       2328.74
        0.105       2328.74
       0.1075       2328.62
       0.1075       2328.62
         0.11       2328.74
         0.11       2328.74
       0.1125       2328.88
       0.1125       2328.88
        0.115       2328.79
        0.115       2328.79
       0.1175       2328.66
       0.1175       2328.66
         0.12       2328.77
         0.12       2328.77
       0.1225       2328.96
       0.1225       2328.96
        0.125        2328.9
        0.125        2328.9
       0.1275       2328.67
       0.1275       2328.67
         0.13       2328.66
         0.13       2328.66
       0.1325       2328.82
       0.1325       2328.82
        0.135       2328.81
        0.135       2328.81
       0.1375        2328.7
       0.1375        2328.7
         0.14       2328.81
         0.14       2328.81
       0.1425       2328.94
       0.1425       2328.94
        0.145        2328.8
        0.145        2328.8
       0.1475       2328.59
       0.1475       2328.59
         0.15       2328.71
         0.15       2328.71
       0.1525       2328.94
       0.1525       2328.94
        0.155        2328.9
        0.155        2328.9
       0.1575       2328.76
       0.1575       2328.76
         0.16        2328.8
         0.16        2328.8
       0.1625       2328.83
       0.1625       2328.83
        0.165       2328.75
        0.165       2328.75
       0.1675       2328.81
       0.1675       2328.81
         0.17       2328.97
         0.17       2328.97
       0.1725       2328.82
       0.1725       2328.82
        0.175       2328.59
        0.175       2328.59
       0.1775       2328.73
       0.1775       2328.73
         0.18          2329
         0.18          2329
       0.1825       2328.92
       0.1825       2328.92
        0.185       2328.75
        0.185       2328.75
       0.1875       2328.84
       0.1875       2328.84
         0.19       2328.94
         0.19       2328.94
       0.1925       2328.85
       0.1925       2328.85
        0.195       2328.79
        0.195       2328.79
       0.1975       2328.81
       0.1975       2328.81
          0.2        2328.8
          0.2        2328.8
       0.2025       2328.88
       0.2025       2328.88
        0.205       2329.03
        0.205       2329.03
       0.2075       2328.91
       0.2075       2328.91
         0.21       2328.65
         0.21       2328.65
       0.2125       2328.74
       0.2125       2328.74
        0.215       2329.01
        0.215       2329.01
       0.2175       2328.95
       0.2175       2328.95
         0.22       2328.78
         0.22       2328.78
       0.2225        2328.9
       0.2225        2328.9
        0.225       2328.99
        0.225       2328.99
       0.2275       2328.85
       0.2275       2328.85
         0.23       2328.81
         0.23       2328.81
       0.2325       2328.97
       0.2325       2328.97
        0.235       2328.99
        0.235       2328.99
       0.2375       2328.88
       0.2375       2328.88
         0.24       2328.79
         0.24       2328.79
       0.2425       2328.76
       0.2425       2328.76
        0.245       2328.91
        0.245       2328.91
       0.2475       2329.12
       0.2475       2329.12
         0.25          2329
         0.25          2329
       0.2525       2328.75
       0.2525       2328.75
        0.255       2328.84
        0.255       2328.84
       0.2575       2329.06
       0.2575       2329.06
         0.26       2328.92
         0.26       2328.92
       0.2625       2328.83
       0.2625       2328.83
        0.265          2329
        0.265          2329
       0.2675       2329.06
       0.2675       2329.06
         0.27        2328.9
         0.27        2328.9
       0.2725       2328.93
       0.2725       2328.93
        0.275       2328.98
        0.275       2328.98
       0.2775       2328.85
       0.2775       2328.85
         0.28       2328.82
         0.28       2328.82
       0.2825       2329.06
       0.2825       2329.06
        0.285       2329.13
        0.285       2329.13
       0.2875       2328.95
       0.2875       2328.95
         0.29       2328.83
         0.29       2328.83
       0.2925       2328.95
       0.2925       2328.95
        0.295       2329.13
        0.295       2329.13
       0.2975       2329.13
       0.2975       2329.13
          0.3       2328.93
          0.3       2328.93
       0.3025       2328.85
       0.3025       2328.85
        0.305       2329.03
        0.305       2329.03
       0.3075       2329.09
       0.3075       2329.09
         0.31       2328.97
         0.31       2328.97
       0.3125       2329.05
       0.3125       2329.05
        0.315       2329.22
        0.315       2329.22
       0.3175       2329.07
       0.3175       2329.07
         0.32       2328.91
         0.32       2328.91
       0.3225       2329.07
       0.3225       2329.07
        0.325       2329.22
        0.325       2329.22
       0.3275       2329.17
       0.3275       2329.17
         0.33       2329.23
         0.33       2329.23
       0.3325       2329.22
       0.3325       2329.22
        0.335       2329.11
        0.335       2329.11
       0.3375       2329.17
       0.3375       2329.17
         0.34       2329.36
         0.34       2329.36
       0.3425        2329.2
       0.3425        2329.2
        0.345       2329.07
        0.345       2329.07
       0.3475       2329.28
       0.3475       2329.28
         0.35        2329.5
         0.35        2329.5
       0.3525       2329.31
       0.3525       2329.31
        0.355       2329.14
        0.355       2329.14
       0.3575       2329.25
       0.3575       2329.25
         0.36       2329.49
         0.36       2329.49
       0.3625       2329.45
       0.3625       2329.45
        0.365       2329.28
        0.365       2329.28
       0.3675       2329.24
       0.3675       2329.24
         0.37       2329.36
         0.37       2329.36
       0.3725       2329.38
       0.3725       2329.38
        0.375       2329.41
        0.375       2329.41
       0.3775       2329.51
       0.3775       2329.51
         0.38       2329.46
         0.38       2329.46
       0.3825       2329.22
       0.3825       2329.22
        0.385        2329.3
        0.385        2329.3
       0.3875       2329.55
       0.3875       2329.55
         0.39       2329.55
         0.39       2329.55
       0.3925       2329.44
       0.3925       2329.44
        0.395       2329.53
        0.395       2329.53
       0.3975       2329.56
       0.3975       2329.56
          0.4       2329.49
          0.4       2329.49
       0.4025       2329.48
       0.4025       2329.48
        0.405        2329.5
        0.405        2329.5
       0.4075       2329.51
       0.4075       2329.51
         0.41       2329.62
         0.41       2329.62
       0.4125       2329.58
       0.4125       2329.58
        0.415       2329.44
        0.415       2329.44
       0.4175       2329.55
       0.4175       2329.55
         0.42       2329.77
         0.42       2329.77
       0.4225       2329.58
       0.4225       2329.58
        0.425       2329.41
        0.425       2329.41
       0.4275       2329.65
       0.4275       2329.65
         0.43       2329.83
         0.43       2329.83
       0.4325       2329.55
       0.4325       2329.55
        0.435       2329.43
        0.435       2329.43
       0.4375       2329.67
       0.4375       2329.67
         0.44       2329.85
         0.44       2329.85
       0.4425       2329.72
       0.4425       2329.72
        0.445       2329.59
        0.445       2329.59
       0.4475       2329.52
       0.4475       2329.52
         0.45       2329.57
         0.45       2329.57
       0.4525       2329.72
       0.4525       2329.72
        0.455       2329.88
        0.455       2329.88
       0.4575       2329.82
       0.4575       2329.82
         0.46       2329.67
         0.46       2329.67
       0.4625       2329.69
       0.4625       2329.69
        0.465       2329.86
        0.465       2329.86
       0.4675       2329.82
       0.4675       2329.82
         0.47       2329.71
         0.47       2329.71
       0.4725        2329.8
       0.4725        2329.8
        0.475        2329.9
        0.475        2329.9
       0.4775       2329.79
       0.4775       2329.79
         0.48       2329.76
         0.48       2329.76
       0.4825        2329.9
       0.4825        2329.9
        0.485       2329.91
        0.485       2329.91
       0.4875       2329.84
       0.4875       2329.84
         0.49        2329.9
         0.49        2329.9
       0.4925       2329.97
       0.4925       2329.97
        0.495       2329.95
        0.495       2329.95
       0.4975       2329.94
       0.4975       2329.94
          0.5       2329.99
          0.5       2329.99
       0.5025       2330.08
       0.5025       2330.08
        0.505       2330.14
        0.505       2330.14
       0.5075       2330.04
       0.5075       2330.04
         0.51       2329.98
         0.51       2329.98
       0.5125       2330.11
       0.5125       2330.11
        0.515       2330.11
        0.515       2330.11
       0.5175          2330
       0.5175          2330
         0.52       2330.24
         0.52       2330.24
       0.5225       2330.52
       0.5225       2330.52
        0.525       2330.22
        0.525       2330.22
       0.5275       2329.93
       0.5275       2329.93
         0.53       2330.26
         0.53       2330.26
       0.5325       2330.55
       0.5325       2330.55
        0.535       2330.38
        0.535       2330.38
       0.5375       2330.22
       0.5375       2330.22
         0.54       2330.31
         0.54       2330.31
       0.5425        2330.4
       0.5425        2330.4
        0.545       2330.46
        0.545       2330.46
       0.5475       2330.49
       0.5475       2330.49
         0.55        2330.4
         0.55        2330.4
       0.5525       2330.41
       0.5525       2330.41
        0.555       2330.57
        0.555       2330.57
       0.5575       2330.58
       0.5575       2330.58
         0.56       2330.48
         0.56       2330.48
       0.5625       2330.59
       0.5625       2330.59
        0.565       2330.77
        0.565       2330.77
       0.5675       2330.75
       0.5675       2330.75
         0.57        2330.7
         0.57        2330.7
       0.5725       2330.76
       0.5725       2330.76
        0.575       2330.76
        0.575       2330.76
       0.5775        2330.7
       0.5775        2330.7
         0.58        2330.8
         0.58        2330.8
       0.5825       2330.97
       0.5825       2330.97
        0.585       2330.99
        0.585       2330.99
       0.5875       2330.94
       0.5875       2330.94
         0.59       2330.98
         0.59       2330.98
       0.5925       2330.99
       0.5925       2330.99
        0.595       2330.97
        0.595       2330.97
       0.5975       2331.11
       0.5975       2331.11
          0.6        2331.3
          0.6        2331.3
       0.6025       2331.24
       0.6025       2331.24
        0.605       2331.11
        0.605       2331.11
       0.6075        2331.2
       0.6075        2331.2
         0.61       2331.38
         0.61       2331.38
       0.6125       2331.43
       0.6125       2331.43
        0.615       2331.42
        0.615       2331.42
       0.6175       2331.42
       0.6175       2331.42
         0.62        2331.4
         0.62        2331.4
       0.6225       2331.46
       0.6225       2331.46
       0.6225       2331.46
        0.625       2331.68
        0.625       2331.68
       0.6275       2331.85
       0.6275       2331.85
         0.63       2331.73
         0.63       2331.73
       0.6325       2331.63
       0.6325       2331.63
       0.6325       2331.63
        0.635        2331.9
        0.635        2331.9
        0.635        2331.9
       0.6375       2332.09
       0.6375       2332.09
       0.6375       2332.09
         0.64       2331.83
         0.64       2331.83
         0.64       2331.83
       0.6425        2331.7
       0.6425        2331.7
       0.6425        2331.7
        0.645       2332.13
        0.645       2332.13
        0.645       2332.13
       0.6475       2332.38
       0.6475       2332.38
       0.6475       2332.38
         0.65       2332.11
         0.65       2332.11
         0.65       2332.11
       0.6525       2332.03
       0.6525       2332.03
       0.6525       2332.03
        0.655       2332.29
        0.655       2332.29
        0.655       2332.29
       0.6575       2332.35
       0.6575       2332.35
       0.6575       2332.35
         0.66        2332.3
         0.66        2332.3
         0.66        2332.3
       0.6625       2332.47
       0.6625       2332.47
        0.665        2332.6
        0.665        2332.6
       0.6675       2332.61
       0.6675       2332.61
         0.67       2332.62
         0.67       2332.62
       0.6725       2332.64
       0.6725       2332.64
        0.675       2332.74
        0.675       2332.74
        0.675       2332.74
       0.6775       2332.95
       0.6775       2332.95
       0.6775       2332.95
         0.68       2332.97
         0.68       2332.97
         0.68       2332.97
       0.6825       2332.85
       0.6825       2332.85
        0.685       2332.89
        0.685       2332.89
       0.6875       2333.14
       0.6875       2333.14
         0.69       2333.19
         0.69       2333.19
       0.6925       2333.32
       0.6925       2333.32
        0.695       2333.45
        0.695       2333.45
       0.6975       2333.34
       0.6975       2333.34
          0.7       2333.32
          0.7       2333.32
       0.7025       2333.58
       0.7025       2333.58
        0.705        2333.7
        0.705        2333.7
       0.7075       2333.62
       0.7075       2333.62
         0.71       2333.71
         0.71       2333.71
         0.71       2333.71
       0.7125       2333.89
       0.7125       2333.89
        0.715       2333.95
        0.715       2333.95
        0.715       2333.95
       0.7175       2333.99
       0.7175       2333.99
         0.72       2334.04
         0.72       2334.04
       0.7225       2333.98
       0.7225       2333.98
        0.725       2334.18
        0.725       2334.18
        0.725       2334.18
       0.7275       2334.48
       0.7275       2334.48
       0.7275       2334.48
         0.73       2334.54
         0.73       2334.54
       0.7325       2334.39
       0.7325       2334.39
       0.7325       2334.39
        0.735       2334.48
        0.735       2334.48
       0.7375       2334.76
       0.7375       2334.76
         0.74       2334.91
         0.74       2334.91
       0.7425       2334.89
       0.7425       2334.89
        0.745       2334.93
        0.745       2334.93
       0.7475       2334.97
       0.7475       2334.97
       0.7475       2334.97
         0.75       2335.09
         0.75       2335.09
         0.75       2335.09
       0.7525       2335.28
       0.7525       2335.28
       0.7525       2335.28
        0.755       2335.38
        0.755       2335.38
       0.7575       2335.45
       0.7575       2335.45
         0.76        2335.6
         0.76        2335.6
       0.7625       2335.71
       0.7625       2335.71
        0.765       2335.58
        0.765       2335.58
       0.7675       2335.63
       0.7675       2335.63
       0.7675       2335.63
         0.77        2336.1
         0.77        2336.1
       0.7725       2336.33
       0.7725       2336.33
        0.775       2336.08
        0.775       2336.08
       0.7775       2336.08
       0.7775       2336.08
         0.78       2336.52
         0.78       2336.52
       0.7825       2336.64
       0.7825       2336.64
        0.785       2336.44
        0.785       2336.44
       0.7875       2336.58
       0.7875       2336.58
         0.79       2336.98
         0.79       2336.98
       0.7925       2337.05
       0.7925       2337.05
        0.795       2337.02
        0.795       2337.02
       0.7975       2337.27
       0.7975       2337.27
          0.8       2337.42
          0.8       2337.42
       0.8025       2337.38
       0.8025       2337.38
        0.805       2337.59
        0.805       2337.59
       0.8075       2337.92
       0.8075       2337.92
         0.81        2337.9
         0.81        2337.9
       0.8125       2337.76
       0.8125       2337.76
        0.815       2337.97
        0.815       2337.97
       0.8175       2338.31
       0.8175       2338.31
         0.82       2338.51
         0.82       2338.51
       0.8225       2338.52
       0.8225       2338.52
        0.825       2338.53
        0.825       2338.53
       0.8275       2338.65
       0.8275       2338.65
         0.83       2338.88
         0.83       2338.88
       0.8325       2339.08
       0.8325       2339.08
        0.835       2339.19
        0.835       2339.19
       0.8375       2339.37
       0.8375       2339.37
         0.84       2339.55
         0.84       2339.55
       0.8425       2339.64
       0.8425       2339.64
        0.845       2339.72
        0.845       2339.72
       0.8475       2339.88
       0.8475       2339.88
         0.85       2340.04
         0.85       2340.04
       0.8525       2340.26
       0.8525       2340.26
        0.855       2340.41
        0.855       2340.41
       0.8575       2340.44
       0.8575       2340.44
         0.86       2340.61
         0.86       2340.61
       0.8625       2340.96
       0.8625       2340.96
        0.865       2341.06
        0.865       2341.06
       0.8675       2341.03
       0.8675       2341.03
         0.87       2341.25
         0.87       2341.25
       0.8725       2341.58
       0.8725       2341.58
        0.875       2341.69
        0.875       2341.69
       0.8775       2341.72
       0.8775       2341.72
         0.88       2341.83
         0.88       2341.83
       0.8825       2342.12
       0.8825       2342.12
        0.885       2342.49
        0.885       2342.49
       0.8875       2342.61
       0.8875       2342.61
         0.89       2342.47
         0.89       2342.47
       0.8925       2342.62
       0.8925       2342.62
        0.895       2343.05
        0.895       2343.05
       0.8975       2343.28
       0.8975       2343.28
          0.9       2343.38
          0.9       2343.38
       0.9025       2343.65
       0.9025       2343.65
        0.905       2343.82
        0.905       2343.82
       0.9075       2343.86
       0.9075       2343.86
         0.91       2344.09
         0.91       2344.09
       0.9125       2344.41
       0.9125       2344.41
        0.915       2344.55
        0.915       2344.55
       0.9175       2344.64
       0.9175       2344.64
         0.92       2344.87
         0.92       2344.87
       0.9225       2345.11
       0.9225       2345.11
        0.925       2345.35
        0.925       2345.35
       0.9275       2345.49
       0.9275       2345.49
         0.93       2345.61
         0.93       2345.61
       0.9325       2345.93
       0.9325       2345.93
        0.935       2346.26
        0.935       2346.26
       0.9375       2346.25
       0.9375       2346.25
         0.94       2346.36
         0.94       2346.36
       0.9425       2346.85
       0.9425       2346.85
        0.945       2347.15
        0.945       2347.15
       0.9475       2347.08
       0.9475       2347.08
         0.95       2347.32
         0.95       2347.32
       0.9525        2347.8
       0.9525        2347.8
        0.955       2347.88
        0.955       2347.88
       0.9575       2347.81
       0.9575       2347.81
         0.96       2348.17
         0.96       2348.17
       0.9625       2348.67
       0.9625       2348.67
        0.965       2348.88
        0.965       2348.88
       0.9675       2349.01
       0.9675       2349.01
         0.97       2349.21
         0.97       2349.21
       0.9725       2349.32
       0.9725       2349.32
        0.975       2349.56
        0.975       2349.56
       0.9775       2350.07
       0.9775       2350.07
         0.98        2350.3
         0.98        2350.3
       0.9825       2350.21
       0.9825       2350.21
        0.985       2350.43
        0.985       2350.43
       0.9875       2350.98
       0.9875       2350.98
         0.99       2351.18
         0.99       2351.18
       0.9925       2351.21
       0.9925       2351.21
        0.995       2351.53
        0.995       2351.53
       0.9975       2351.92
       0.9975       2351.92
            1       2352.05
            1       2352.05
       1.0025       2352.26
       1.0025       2352.26
        1.005       2352.62
        1.005       2352.62
       1.0075        2352.9
       1.0075        2352.9
         1.01       2353.15
         1.01       2353.15
       1.0125       2353.43
       1.0125       2353.43
        1.015       2353.67
        1.015       2353.67
       1.0175       2353.88
       1.0175       2353.88
         1.02        2354.1
         1.02        2354.1
       1.0225       2354.31
       1.0225       2354.31
        1.025       2354.64
        1.025       2354.64
       1.0275       2355.07
       1.0275       2355.07
         1.03       2355.34
         1.03       2355.34
       1.0325       2355.47
       1.0325       2355.47
        1.035       2355.73
        1.035       2355.73
       1.0375       2356.04
       1.0375       2356.04
         1.04        2356.3
         1.04        2356.3
       1.0425       2356.58
       1.0425       2356.58
        1.045       2356.99
        1.045       2356.99
       1.0475       2357.29
       1.0475       2357.29
         1.05        2357.4
         1.05        2357.4
       1.0525       2357.57
       1.0525       2357.57
        1.055       2358.05
        1.055       2358.05
       1.0575       2358.56
       1.0575       2358.56
         1.06       2358.69
         1.06       2358.69
       1.0625       2358.68
       1.0625       2358.68
        1.065       2359.09
        1.065       2359.09
       1.0675       2359.68
       1.0675       2359.68
         1.07       2359.95
         1.07       2359.95
       1.0725       2360.06
       1.0725       2360.06
        1.075       2360.41
        1.075       2360.41
       1.0775       2360.86
       1.0775       2360.86
         1.08       2361.14
         1.08       2361.14
       1.0825       2361.32
       1.0825       2361.32
        1.085       2361.58
        1.085       2361.58
       1.0875       2361.95
       1.0875       2361.95
         1.09       2362.36
         1.09       2362.36
       1.0925       2362.66
       1.0925       2362.66
        1.095       2362.96
        1.095       2362.96
       1.0975       2363.24
       1.0975       2363.24
          1.1       2363.48
          1.1       2363.48
       1.1025       2363.81
       1.1025       2363.81
        1.105       2364.27
        1.105       2364.27
       1.1075       2364.61
       1.1075       2364.61
         1.11       2364.86
         1.11       2364.86
       1.1125       2365.24
       1.1125       2365.24
        1.115       2365.59
        1.115       2365.59
       1.1175       2365.78
       1.1175       2365.78
         1.12       2366.18
         1.12       2366.18
       1.1225        2366.7
       1.1225        2366.7
        1.125       2366.95
        1.125       2366.95
       1.1275       2367.04
       1.1275       2367.04
         1.13       2367.43
         1.13       2367.43
       1.1325       2367.96
       1.1325       2367.96
        1.135       2368.31
        1.135       2368.31
       1.1375       2368.62
       1.1375       2368.62
         1.14       2369.01
         1.14       2369.01
       1.1425        2369.3
       1.1425        2369.3
        1.145       2369.53
        1.145       2369.53
       1.1475        2369.9
       1.1475        2369.9
         1.15       2370.44
         1.15       2370.44
       1.1525       2370.74
       1.1525       2370.74
        1.155        2370.9
        1.155        2370.9
       1.1575        2371.3
       1.1575        2371.3
         1.16       2371.94
         1.16       2371.94
       1.1625       2372.19
       1.1625       2372.19
        1.165       2372.18
        1.165       2372.18
       1.1675       2372.65
       1.1675       2372.65
         1.17        2373.4
         1.17        2373.4
       1.1725       2373.71
       1.1725       2373.71
        1.175       2373.84
        1.175       2373.84
       1.1775       2374.23
       1.1775       2374.23
         1.18       2374.68
         1.18       2374.68
       1.1825       2375.05
       1.1825       2375.05
        1.185       2375.48
        1.185       2375.48
       1.1875       2375.79
       1.1875       2375.79
         1.19       2376.04
         1.19       2376.04
       1.1925       2376.52
       1.1925       2376.52
        1.195       2376.94
        1.195       2376.94
       1.1975       2377.15
       1.1975       2377.15
          1.2       2377.67
          1.2       2377.67
       1.2025       2378.31
       1.2025       2378.31
        1.205       2378.47
        1.205       2378.47
       1.2075       2378.58
       1.2075       2378.58
         1.21       2379.16
         1.21       2379.16
       1.2125       2379.69
       1.2125       2379.69
        1.215       2379.95
        1.215       2379.95
       1.2175       2380.39
       1.2175       2380.39
         1.22       2380.88
         1.22       2380.88
       1.2225       2381.12
       1.2225       2381.12
        1.225       2381.48
        1.225       2381.48
       1.2275       2382.05
       1.2275       2382.05
         1.23       2382.39
         1.23       2382.39
       1.2325       2382.62
       1.2325       2382.62
        1.235       2383.12
        1.235       2383.12
       1.2375       2383.69
       1.2375       2383.69
         1.24       2384.04
         1.24       2384.04
       1.2425       2384.36
       1.2425       2384.36
        1.245       2384.75
        1.245       2384.75
       1.2475        2385.2
       1.2475        2385.2
         1.25       2385.69
         1.25       2385.69
       1.2525       2386.13
       1.2525       2386.13
        1.255       2386.41
        1.255       2386.41
       1.2575       2386.71
       1.2575       2386.71
         1.26       2387.15
         1.26       2387.15
       1.2625       2387.71
       1.2625       2387.71
        1.265       2388.23
        1.265       2388.23
       1.2675       2388.55
       1.2675       2388.55
         1.27       2388.74
         1.27       2388.74
       1.2725       2389.18
       1.2725       2389.18
        1.275       2389.82
        1.275       2389.82
       1.2775       2390.26
       1.2775       2390.26
         1.28        2390.5
         1.28        2390.5
       1.2825       2391.03
       1.2825       2391.03
        1.285       2391.65
        1.285       2391.65
       1.2875       2391.89
       1.2875       2391.89
         1.29       2392.05
         1.29       2392.05
       1.2925       2392.65
       1.2925       2392.65
        1.295       2393.31
        1.295       2393.31
       1.2975       2393.56
       1.2975       2393.56
          1.3       2393.77
          1.3       2393.77