# Probe 0 (1.4485 0 0.01)
# Probe 1 (1.4485 0 0.1)
# Probe 2 (1.4485 0 0.2)
# Probe 3 (1.4485 0 0.3)
#       Probe             0             1             2             3
#        Time
            0      -118.256      -977.242       -1961.8      -2.94085
            0      -118.256      -977.242       -1961.8      -2.94085
       0.0025       2328.54       1469.79       485.778      -2.94143
       0.0025       2328.54       1469.79       485.778      -2.94143
        0.005       2328.66       1469.87       485.932      -2.94103
        0.005       2328.66       1469.87       485.932      -2.94103
       0.0075       2329.09       1469.95       485.938      -2.94263
       0.0075       2329.09       1469.95       485.938      -2.94263
         0.01       2329.06       1469.95       485.909      -2.94144
         0.01       2329.06       1469.95       485.909      -2.94144
       0.0125       2328.69       1469.89       485.908      -2.94137
       0.0125       2328.69       1469.89       485.908      -2.94137
        0.015       2328.77       1469.88       485.908      -2.94157
        0.015       2328.77       1469.88       485.908      -2.94157
       0.0175       2328.93       1469.91       485.907      -2.94139
       0.0175       2328.93       1469.91       485.907      -2.94139
         0.02       2328.79       1469.89       485.888      -2.94168
         0.02       2328.79       1469.89       485.888      -2.94168
       0.0225       2328.78       1469.88       485.861      -2.94152
       0.0225       2328.78       1469.88       485.861      -2.94152
        0.025       2328.88       1469.89       485.858      -2.94182
        0.025       2328.88       1469.89       485.858      -2.94182
       0.0275       2328.82       1469.88       485.846      -2.94181
       0.0275       2328.82       1469.88       485.846      -2.94181
         0.03       2328.79       1469.87       485.836      -2.94171
         0.03       2328.79       1469.87       485.836      -2.94171
       0.0325       2328.85       1469.87       485.816       -2.9413
       0.0325       2328.85       1469.87       485.816       -2.9413
        0.035       2328.81       1469.86       485.807      -2.94064
        0.035       2328.81       1469.86       485.807      -2.94064
       0.0375       2328.78       1469.86       485.796      -2.94036
       0.0375       2328.78       1469.86       485.796      -2.94036
         0.04       2328.83       1469.86       485.785      -2.94081
         0.04       2328.83       1469.86       485.785      -2.94081
       0.0425       2328.82       1469.86       485.775      -2.94172
       0.0425       2328.82       1469.86       485.775      -2.94172
        0.045       2328.79       1469.86       485.774      -2.94193
        0.045       2328.79       1469.86       485.774      -2.94193
       0.0475       2328.81       1469.86       485.773      -2.94116
       0.0475       2328.81       1469.86       485.773      -2.94116
         0.05       2328.79       1469.86        485.76      -2.94031
         0.05       2328.79       1469.86        485.76      -2.94031
       0.0525       2328.78       1469.86        485.75      -2.94066
       0.0525       2328.78       1469.86        485.75      -2.94066
        0.055       2328.84       1469.87       485.729      -2.94154
        0.055       2328.84       1469.87       485.729      -2.94154
       0.0575       2328.86       1469.87       485.707      -2.94148
       0.0575       2328.86       1469.87       485.707      -2.94148
         0.06       2328.84       1469.85       485.686      -2.94058
         0.06       2328.84       1469.85       485.686      -2.94058
       0.0625       2328.84       1469.83       485.672      -2.94029
       0.0625       2328.84       1469.83       485.672      -2.94029
        0.065       2328.79       1469.82       485.651        -2.941
        0.065       2328.79       1469.82       485.651        -2.941
       0.0675        2328.7        1469.8       485.626      -2.94117
       0.0675        2328.7        1469.8       485.626      -2.94117
         0.07       2328.69        1469.8       485.607      -2.94027
         0.07       2328.69        1469.8       485.607      -2.94027
       0.0725       2328.77       1469.82       485.586      -2.94005
       0.0725       2328.77       1469.82       485.586      -2.94005
        0.075       2328.87       1469.84       485.583      -2.94073
        0.075       2328.87       1469.84       485.583      -2.94073
       0.0775       2328.91       1469.83       485.578      -2.94065
       0.0775       2328.91       1469.83       485.578      -2.94065
         0.08       2328.81       1469.82       485.572      -2.93989
         0.08       2328.81       1469.82       485.572      -2.93989
       0.0825       2328.66       1469.78       485.545      -2.93999
       0.0825       2328.66       1469.78       485.545      -2.93999
        0.085       2328.68       1469.79       485.526       -2.9407
        0.085       2328.68       1469.79       485.526       -2.9407
       0.0875       2328.84       1469.82       485.508       -2.9407
       0.0875       2328.84       1469.82       485.508       -2.9407
         0.09       2328.92       1469.84         485.5      -2.94033
         0.09       2328.92       1469.84         485.5      -2.94033
       0.0925       2328.84       1469.81       485.476      -2.94073
       0.0925       2328.84       1469.81       485.476      -2.94073
        0.095       2328.68       1469.78       485.453      -2.94048
        0.095       2328.68       1469.78       485.453      -2.94048
       0.0975       2328.67       1469.76       485.428       -2.9397
       0.0975       2328.67       1469.76       485.428       -2.9397
          0.1       2328.84       1469.79       485.415      -2.93907
          0.1       2328.84       1469.79       485.415      -2.93907
          0.1       2328.84       1469.79       485.415      -2.93907
       0.1025       2328.91        1469.8       485.392      -2.93994
       0.1025       2328.91        1469.8       485.392      -2.93994
       0.1025       2328.91        1469.8       485.392      -2.93994
        0.105       2328.74       1469.77        485.37      -2.93983
        0.105       2328.74       1469.77        485.37      -2.93983
       0.1075       2328.62       1469.74       485.356      -2.94002
       0.1075       2328.62       1469.74       485.356      -2.94002
         0.11       2328.74       1469.77        485.36      -2.93993
         0.11       2328.74       1469.77        485.36      -2.93993
       0.1125       2328.88        1469.8       485.346      -2.94014
       0.1125       2328.88        1469.8       485.346      -2.94014
        0.115       2328.79       1469.79       485.338      -2.93887
        0.115       2328.79       1469.79       485.338      -2.93887
       0.1175       2328.66       1469.77       485.322      -2.93901
       0.1175       2328.66       1469.77       485.322      -2.93901
         0.12       2328.77       1469.79       485.323      -2.93967
         0.12       2328.77       1469.79       485.323      -2.93967
       0.1225       2328.96       1469.82         485.3      -2.94037
       0.1225       2328.96       1469.82         485.3      -2.94037
        0.125        2328.9        1469.8       485.288      -2.93943
        0.125        2328.9        1469.8       485.288      -2.93943
       0.1275       2328.67       1469.75       485.259      -2.93929
       0.1275       2328.67       1469.75       485.259      -2.93929
         0.13       2328.66       1469.75       485.258      -2.93897
         0.13       2328.66       1469.75       485.258      -2.93897
       0.1325       2328.82       1469.77       485.226       -2.9392
       0.1325       2328.82       1469.77       485.226       -2.9392
        0.135       2328.81       1469.78       485.215      -2.93957
        0.135       2328.81       1469.78       485.215      -2.93957
       0.1375        2328.7       1469.75       485.188      -2.93943
       0.1375        2328.7       1469.75       485.188      -2.93943
         0.14       2328.81       1469.78       485.203      -2.93845
         0.14       2328.81       1469.78       485.203      -2.93845
       0.1425       2328.94       1469.79        485.19      -2.93795
       0.1425       2328.94       1469.79        485.19      -2.93795
        0.145        2328.8       1469.79        485.19        -2.939
        0.145        2328.8       1469.79        485.19        -2.939
       0.1475       2328.59       1469.74       485.163      -2.93906
       0.1475       2328.59       1469.74       485.163      -2.93906
         0.15       2328.71       1469.78       485.168      -2.93883
         0.15       2328.71       1469.78       485.168      -2.93883
       0.1525       2328.94       1469.81       485.159      -2.93866
       0.1525       2328.94       1469.81       485.159      -2.93866
        0.155        2328.9       1469.82        485.16      -2.93915
        0.155        2328.9       1469.82        485.16      -2.93915
       0.1575       2328.76       1469.78       485.144      -2.93913
       0.1575       2328.76       1469.78       485.144      -2.93913
         0.16        2328.8       1469.79       485.138      -2.93882
         0.16        2328.8       1469.79       485.138      -2.93882
       0.1625       2328.83       1469.79       485.116      -2.93812
       0.1625       2328.83       1469.79       485.116      -2.93812
        0.165       2328.75       1469.78       485.092      -2.93767
        0.165       2328.75       1469.78       485.092      -2.93767
       0.1675       2328.81       1469.78       485.076      -2.93838
       0.1675       2328.81       1469.78       485.076      -2.93838
         0.17       2328.97       1469.81        485.08      -2.93907
         0.17       2328.97       1469.81        485.08      -2.93907
       0.1725       2328.82       1469.78       485.072      -2.93855
       0.1725       2328.82       1469.78       485.072      -2.93855
        0.175       2328.59       1469.75       485.055      -2.93781
        0.175       2328.59       1469.75       485.055      -2.93781
       0.1775       2328.73       1469.78       485.051      -2.93804
       0.1775       2328.73       1469.78       485.051      -2.93804
         0.18          2329       1469.84        485.06      -2.93806
         0.18          2329       1469.84        485.06      -2.93806
       0.1825       2328.92       1469.83       485.062      -2.93769
       0.1825       2328.92       1469.83       485.062      -2.93769
        0.185       2328.75        1469.8        485.05      -2.93791
        0.185       2328.75        1469.8        485.05      -2.93791
       0.1875       2328.84       1469.81       485.051      -2.93861
       0.1875       2328.84       1469.81       485.051      -2.93861
         0.19       2328.94       1469.83        485.05      -2.93855
         0.19       2328.94       1469.83        485.05      -2.93855
       0.1925       2328.85       1469.81       485.039      -2.93797
       0.1925       2328.85       1469.81       485.039      -2.93797
        0.195       2328.79        1469.8       485.021      -2.93751
        0.195       2328.79        1469.8       485.021      -2.93751
       0.1975       2328.81        1469.8       485.008      -2.93788
       0.1975       2328.81        1469.8       485.008      -2.93788
          0.2        2328.8       1469.81       485.003      -2.93849
          0.2        2328.8       1469.81       485.003      -2.93849
       0.2025       2328.88       1469.82       484.998      -2.93807
       0.2025       2328.88       1469.82       484.998      -2.93807
        0.205       2329.03       1469.85       485.002      -2.93707
        0.205       2329.03       1469.85       485.002      -2.93707
       0.2075       2328.91       1469.82       484.996       -2.9368
       0.2075       2328.91       1469.82       484.996       -2.9368
         0.21       2328.65       1469.78       484.988      -2.93748
         0.21       2328.65       1469.78       484.988      -2.93748
       0.2125       2328.74       1469.79       484.987      -2.93761
       0.2125       2328.74       1469.79       484.987      -2.93761
        0.215       2329.01       1469.85       484.991      -2.93767
        0.215       2329.01       1469.85       484.991      -2.93767
       0.2175       2328.95       1469.86        485.01       -2.9379
       0.2175       2328.95       1469.86        485.01       -2.9379
         0.22       2328.78       1469.83       485.004      -2.93766
         0.22       2328.78       1469.83       485.004      -2.93766
       0.2225        2328.9       1469.86        485.03      -2.93704
       0.2225        2328.9       1469.86        485.03      -2.93704
        0.225       2328.99       1469.87       485.026      -2.93713
        0.225       2328.99       1469.87       485.026      -2.93713
       0.2275       2328.85       1469.86        485.01      -2.93752
       0.2275       2328.85       1469.86        485.01      -2.93752
         0.23       2328.81       1469.84       484.991      -2.93722
         0.23       2328.81       1469.84       484.991      -2.93722
       0.2325       2328.97       1469.87       485.005      -2.93684
       0.2325       2328.97       1469.87       485.005      -2.93684
        0.235       2328.99       1469.87       485.015      -2.93727
        0.235       2328.99       1469.87       485.015      -2.93727
       0.2375       2328.88       1469.85       485.003      -2.93779
       0.2375       2328.88       1469.85       485.003      -2.93779
         0.24       2328.79       1469.83       485.001      -2.93725
         0.24       2328.79       1469.83       485.001      -2.93725
       0.2425       2328.76       1469.84       484.999      -2.93618
       0.2425       2328.76       1469.84       484.999      -2.93618
        0.245       2328.91       1469.88        485.01      -2.93604
        0.245       2328.91       1469.88        485.01      -2.93604
       0.2475       2329.12       1469.92       485.021      -2.93704
       0.2475       2329.12       1469.92       485.021      -2.93704
         0.25          2329       1469.89       485.028      -2.93741
         0.25          2329       1469.89       485.028      -2.93741
       0.2525       2328.75       1469.85       485.033      -2.93705
       0.2525       2328.75       1469.85       485.033      -2.93705
        0.255       2328.84       1469.85       485.029       -2.9369
        0.255       2328.84       1469.85       485.029       -2.9369
       0.2575       2329.06       1469.92       485.043      -2.93691
       0.2575       2329.06       1469.92       485.043      -2.93691
         0.26       2328.92       1469.89       485.028      -2.93698
         0.26       2328.92       1469.89       485.028      -2.93698
       0.2625       2328.83        1469.9       485.043      -2.93716
       0.2625       2328.83        1469.9       485.043      -2.93716
        0.265          2329        1469.9       485.028      -2.93727
        0.265          2329        1469.9       485.028      -2.93727
       0.2675       2329.06       1469.93        485.04      -2.93676
       0.2675       2329.06       1469.93        485.04      -2.93676
         0.27        2328.9       1469.88       485.031      -2.93631
         0.27        2328.9       1469.88       485.031      -2.93631
       0.2725       2328.93       1469.89       485.041      -2.93645
       0.2725       2328.93       1469.89       485.041      -2.93645
        0.275       2328.98       1469.89       485.036      -2.93654
        0.275       2328.98       1469.89       485.036      -2.93654
       0.2775       2328.85        1469.9       485.039      -2.93648
       0.2775       2328.85        1469.9       485.039      -2.93648
         0.28       2328.82       1469.88       485.031      -2.93722
         0.28       2328.82       1469.88       485.031      -2.93722
       0.2825       2329.06       1469.95       485.066      -2.93766
       0.2825       2329.06       1469.95       485.066      -2.93766
        0.285       2329.13       1469.95       485.078      -2.93685
        0.285       2329.13       1469.95       485.078      -2.93685
       0.2875       2328.95       1469.94       485.074      -2.93605
       0.2875       2328.95       1469.94       485.074      -2.93605
         0.29       2328.83       1469.91       485.081      -2.93679
         0.29       2328.83       1469.91       485.081      -2.93679
       0.2925       2328.95       1469.94       485.078      -2.93771
       0.2925       2328.95       1469.94       485.078      -2.93771
        0.295       2329.13       1469.97       485.095      -2.93757
        0.295       2329.13       1469.97       485.095      -2.93757
       0.2975       2329.13       1469.99       485.088      -2.93701
       0.2975       2329.13       1469.99       485.088      -2.93701
          0.3       2328.93       1469.94       485.101      -2.93725
          0.3       2328.93       1469.94       485.101      -2.93725
       0.3025       2328.85       1469.92       485.091      -2.93766
       0.3025       2328.85       1469.92       485.091      -2.93766
        0.305       2329.03       1469.96       485.109      -2.93724
        0.305       2329.03       1469.96       485.109      -2.93724
       0.3075       2329.09       1469.98       485.098       -2.9366
       0.3075       2329.09       1469.98       485.098       -2.9366
         0.31       2328.97       1469.98       485.111       -2.9365
         0.31       2328.97       1469.98       485.111       -2.9365
       0.3125       2329.05          1470       485.127      -2.93688
       0.3125       2329.05          1470       485.127      -2.93688
        0.315       2329.22       1470.05       485.162      -2.93723
        0.315       2329.22       1470.05       485.162      -2.93723
       0.3175       2329.07       1470.02       485.158      -2.93737
       0.3175       2329.07       1470.02       485.158      -2.93737
         0.32       2328.91       1470.02       485.168      -2.93699
         0.32       2328.91       1470.02       485.168      -2.93699
       0.3225       2329.07       1470.04       485.168       -2.9367
       0.3225       2329.07       1470.04       485.168       -2.9367
        0.325       2329.22       1470.11       485.209      -2.93696
        0.325       2329.22       1470.11       485.209      -2.93696
       0.3275       2329.17       1470.09       485.209      -2.93739
       0.3275       2329.17       1470.09       485.209      -2.93739
         0.33       2329.23       1470.14       485.243      -2.93732
         0.33       2329.23       1470.14       485.243      -2.93732
       0.3325       2329.22       1470.11       485.228        -2.937
       0.3325       2329.22       1470.11       485.228        -2.937
        0.335       2329.11       1470.14       485.256      -2.93642
        0.335       2329.11       1470.14       485.256      -2.93642
       0.3375       2329.17       1470.12       485.248      -2.93599
       0.3375       2329.17       1470.12       485.248      -2.93599
         0.34       2329.36       1470.21       485.286      -2.93648
         0.34       2329.36       1470.21       485.286      -2.93648
       0.3425        2329.2       1470.16       485.271      -2.93741
       0.3425        2329.2       1470.16       485.271      -2.93741
        0.345       2329.07       1470.19       485.307      -2.93706
        0.345       2329.07       1470.19       485.307      -2.93706
       0.3475       2329.28        1470.2       485.314      -2.93592
       0.3475       2329.28        1470.2       485.314      -2.93592
         0.35        2329.5        1470.3       485.364      -2.93587
         0.35        2329.5        1470.3       485.364      -2.93587
       0.3525       2329.31       1470.24       485.356       -2.9363
       0.3525       2329.31       1470.24       485.356       -2.9363
        0.355       2329.14       1470.26       485.383      -2.93605
        0.355       2329.14       1470.26       485.383      -2.93605
       0.3575       2329.25       1470.24       485.375        -2.936
       0.3575       2329.25       1470.24       485.375        -2.936
         0.36       2329.49       1470.33       485.414      -2.93684
         0.36       2329.49       1470.33       485.414      -2.93684
       0.3625       2329.45       1470.29       485.409      -2.93715
       0.3625       2329.45       1470.29       485.409      -2.93715
        0.365       2329.28        1470.3       485.436      -2.93633
        0.365       2329.28        1470.3       485.436      -2.93633
       0.3675       2329.24       1470.27        485.43      -2.93566
       0.3675       2329.24       1470.27        485.43      -2.93566
         0.37       2329.36       1470.33       485.445      -2.93597
         0.37       2329.36       1470.33       485.445      -2.93597
       0.3725       2329.38       1470.31       485.428      -2.93622
       0.3725       2329.38       1470.31       485.428      -2.93622
        0.375       2329.41       1470.35       485.448      -2.93581
        0.375       2329.41       1470.35       485.448      -2.93581
       0.3775       2329.51       1470.34       485.468      -2.93539
       0.3775       2329.51       1470.34       485.468      -2.93539
         0.38       2329.46       1470.37       485.497       -2.9355
         0.38       2329.46       1470.37       485.497       -2.9355
       0.3825       2329.22       1470.32       485.499      -2.93584
       0.3825       2329.22       1470.32       485.499      -2.93584
        0.385        2329.3       1470.37       485.513      -2.93584
        0.385        2329.3       1470.37       485.513      -2.93584
       0.3875       2329.55       1470.42       485.545      -2.93542
       0.3875       2329.55       1470.42       485.545      -2.93542
         0.39       2329.55       1470.46       485.557      -2.93516
         0.39       2329.55       1470.46       485.557      -2.93516
       0.3925       2329.44       1470.44       485.579      -2.93551
       0.3925       2329.44       1470.44       485.579      -2.93551
        0.395       2329.53       1470.46       485.596      -2.93579
        0.395       2329.53       1470.46       485.596      -2.93579
       0.3975       2329.56       1470.48       485.627      -2.93531
       0.3975       2329.56       1470.48       485.627      -2.93531
          0.4       2329.49       1470.49       485.629      -2.93455
          0.4       2329.49       1470.49       485.629      -2.93455
       0.4025       2329.48       1470.48        485.62       -2.9342
       0.4025       2329.48       1470.48        485.62       -2.9342
        0.405        2329.5        1470.5       485.634      -2.93474
        0.405        2329.5        1470.5       485.634      -2.93474
       0.4075       2329.51       1470.49       485.638      -2.93531
       0.4075       2329.51       1470.49       485.638      -2.93531
         0.41       2329.62       1470.54       485.667      -2.93487
         0.41       2329.62       1470.54       485.667      -2.93487
       0.4125       2329.58       1470.52       485.668      -2.93354
       0.4125       2329.58       1470.52       485.668      -2.93354
        0.415       2329.44       1470.53       485.702      -2.93292
        0.415       2329.44       1470.53       485.702      -2.93292
       0.4175       2329.55       1470.53       485.707      -2.93333
       0.4175       2329.55       1470.53       485.707      -2.93333
         0.42       2329.77       1470.61       485.739      -2.93359
         0.42       2329.77       1470.61       485.739      -2.93359
       0.4225       2329.58       1470.55       485.723      -2.93341
       0.4225       2329.58       1470.55       485.723      -2.93341
        0.425       2329.41       1470.55       485.745      -2.93348
        0.425       2329.41       1470.55       485.745      -2.93348
       0.4275       2329.65       1470.56       485.757      -2.93362
       0.4275       2329.65       1470.56       485.757      -2.93362
         0.43       2329.83       1470.64       485.805      -2.93288
         0.43       2329.83       1470.64       485.805      -2.93288
       0.4325       2329.55       1470.58       485.793       -2.9323
       0.4325       2329.55       1470.58       485.793       -2.9323
        0.435       2329.43       1470.59       485.792      -2.93278
        0.435       2329.43       1470.59       485.792      -2.93278
       0.4375       2329.67       1470.61       485.798      -2.93262
       0.4375       2329.67       1470.61       485.798      -2.93262
         0.44       2329.85       1470.67       485.813      -2.93178
         0.44       2329.85       1470.67       485.813      -2.93178
       0.4425       2329.72       1470.62       485.825      -2.93171
       0.4425       2329.72       1470.62       485.825      -2.93171
        0.445       2329.59       1470.61       485.834      -2.93227
        0.445       2329.59       1470.61       485.834      -2.93227
       0.4475       2329.52       1470.59       485.862      -2.93187
       0.4475       2329.52       1470.59       485.862      -2.93187
         0.45       2329.57       1470.65        485.87      -2.93138
         0.45       2329.57       1470.65        485.87      -2.93138
       0.4525       2329.72       1470.69       485.902      -2.93187
       0.4525       2329.72       1470.69       485.902      -2.93187
        0.455       2329.88       1470.76       485.926       -2.9322
        0.455       2329.88       1470.76       485.926       -2.9322
       0.4575       2329.82       1470.75       485.957      -2.93192
       0.4575       2329.82       1470.75       485.957      -2.93192
         0.46       2329.67       1470.75       485.975      -2.93167
         0.46       2329.67       1470.75       485.975      -2.93167
       0.4625       2329.69       1470.74       486.003      -2.93201
       0.4625       2329.69       1470.74       486.003      -2.93201
        0.465       2329.86        1470.8       486.007      -2.93232
        0.465       2329.86        1470.8       486.007      -2.93232
       0.4675       2329.82       1470.79       486.035       -2.9323
       0.4675       2329.82       1470.79       486.035       -2.9323
         0.47       2329.71        1470.8       486.036      -2.93216
         0.47       2329.71        1470.8       486.036      -2.93216
       0.4725        2329.8       1470.81       486.065      -2.93241
       0.4725        2329.8       1470.81       486.065      -2.93241
        0.475        2329.9       1470.85       486.077      -2.93276
        0.475        2329.9       1470.85       486.077      -2.93276
       0.4775       2329.79       1470.84       486.097       -2.9322
       0.4775       2329.79       1470.84       486.097       -2.9322
         0.48       2329.76       1470.84       486.112        -2.931
         0.48       2329.76       1470.84       486.112        -2.931
       0.4825        2329.9       1470.86       486.131      -2.93086
       0.4825        2329.9       1470.86       486.131      -2.93086
        0.485       2329.91       1470.88       486.157       -2.9321
        0.485       2329.91       1470.88       486.157       -2.9321
       0.4875       2329.84       1470.89       486.177      -2.93295
       0.4875       2329.84       1470.89       486.177      -2.93295
         0.49        2329.9       1470.93       486.215      -2.93248
         0.49        2329.9       1470.93       486.215      -2.93248
       0.4925       2329.97       1470.96       486.237      -2.93151
       0.4925       2329.97       1470.96       486.237      -2.93151
        0.495       2329.95       1470.98       486.263      -2.93146
        0.495       2329.95       1470.98       486.263      -2.93146
       0.4975       2329.94       1470.99       486.292      -2.93207
       0.4975       2329.94       1470.99       486.292      -2.93207
          0.5       2329.99       1471.02       486.328       -2.9322
          0.5       2329.99       1471.02       486.328       -2.9322
       0.5025       2330.08       1471.05        486.35      -2.93171
       0.5025       2330.08       1471.05        486.35      -2.93171
        0.505       2330.14       1471.08       486.373       -2.9315
        0.505       2330.14       1471.08       486.373       -2.9315
       0.5075       2330.04       1471.08       486.401      -2.93169
       0.5075       2330.04       1471.08       486.401      -2.93169
         0.51       2329.98        1471.1       486.431      -2.93153
         0.51       2329.98        1471.1       486.431      -2.93153
       0.5125       2330.11       1471.16       486.463      -2.93133
       0.5125       2330.11       1471.16       486.463      -2.93133
        0.515       2330.11        1471.2        486.49      -2.93145
        0.515       2330.11        1471.2        486.49      -2.93145
       0.5175          2330        1471.2       486.524      -2.93138
       0.5175          2330        1471.2       486.524      -2.93138
         0.52       2330.24       1471.27       486.575      -2.93098
         0.52       2330.24       1471.27       486.575      -2.93098
       0.5225       2330.52       1471.34       486.624       -2.9311
       0.5225       2330.52       1471.34       486.624       -2.9311
        0.525       2330.22       1471.32       486.648      -2.93131
        0.525       2330.22       1471.32       486.648      -2.93131
       0.5275       2329.93       1471.28       486.651      -2.93094