# Probe 0 (1.4485 0 0.3)
#       Probe             0
#        Time
            0      -2.94085
            0      -2.94085
       0.0025      -2.94143
       0.0025      -2.94143
        0.005      -2.94103
        0.005      -2.94103
       0.0075      -2.94263
       0.0075      -2.94263
         0.01      -2.94144
         0.01      -2.94144
       0.0125      -2.94137
       0.0125      -2.94137
        0.015      -2.94157
        0.015      -2.94157
       0.0175      -2.94139
       0.0175      -2.94139
         0.02      -2.94168
         0.02      -2.94168
       0.0225      -2.94152
       0.0225      -2.94152
        0.025      -2.94182
        0.025      -2.94182
       0.0275      -2.94181
       0.0275      -2.94181
         0.03      -2.94171
         0.03      -2.94171
       0.0325       -2.9413
       0.0325       -2.9413
        0.035      -2.94064
        0.035      -2.94064
       0.0375      -2.94036
       0.0375      -2.94036
         0.04      -2.94081
         0.04      -2.94081
       0.0425      -2.94172
       0.0425      -2.94172
        0.045      -2.94193
        0.045      -2.94193
       0.0475      -2.94116
       0.0475      -2.94116
         0.05      -2.94031
         0.05      -2.94031
       0.0525      -2.94066
       0.0525      -2.94066
        0.055      -2.94154
        0.055      -2.94154
       0.0575      -2.94148
       0.0575      -2.94148
         0.06      -2.94058
         0.06      -2.94058
       0.0625      -2.94029
       0.0625      -2.94029
        0.065        -2.941
        0.065        -2.941
       0.0675      -2.94117
       0.0675      -2.94117
         0.07      -2.94027
         0.07      -2.94027
       0.0725      -2.94005
       0.0725      -2.94005
        0.075      -2.94073
        0.075      -2.94073
       0.0775      -2.94065
       0.0775      -2.94065
         0.08      -2.93989
         0.08      -2.93989
       0.0825      -2.93999
       0.0825      -2.93999
        0.085       -2.9407
        0.085       -2.9407
       0.0875       -2.9407
       0.0875       -2.9407
         0.09      -2.94033
         0.09      -2.94033
       0.0925      -2.94073
       0.0925      -2.94073
        0.095      -2.94048
        0.095      -2.94048
       0.0975       -2.9397
       0.0975       -2.9397
          0.1      -2.93907
          0.1      -2.93907
          0.1      -2.93907
       0.1025      -2.93994
       0.1025      -2.93994
       0.1025      -2.93994
        0.105      -2.93983
        0.105      -2.93983
       0.1075      -2.94002
       0.1075      -2.94002
         0.11      -2.93993
         0.11      -2.93993
       0.1125      -2.94014
       0.1125      -2.94014
        0.115      -2.93887
        0.115      -2.93887
       0.1175      -2.93901
       0.1175      -2.93901
         0.12      -2.93967
         0.12      -2.93967
       0.1225      -2.94037
       0.1225      -2.94037
        0.125      -2.93943
        0.125      -2.93943
       0.1275      -2.93929
       0.1275      -2.93929
         0.13      -2.93897
         0.13      -2.93897
       0.1325       -2.9392
       0.1325       -2.9392
        0.135      -2.93957
        0.135      -2.93957
       0.1375      -2.93943
       0.1375      -2.93943
         0.14      -2.93845
         0.14      -2.93845
       0.1425      -2.93795
       0.1425      -2.93795
        0.145        -2.939
        0.145        -2.939
       0.1475      -2.93906
       0.1475      -2.93906
         0.15      -2.93883
         0.15      -2.93883
       0.1525      -2.93866
       0.1525      -2.93866
        0.155      -2.93915
        0.155      -2.93915
       0.1575      -2.93913
       0.1575      -2.93913
         0.16      -2.93882
         0.16      -2.93882
       0.1625      -2.93812
       0.1625      -2.93812
        0.165      -2.93767
        0.165      -2.93767
       0.1675      -2.93838
       0.1675      -2.93838
         0.17      -2.93907
         0.17      -2.93907
       0.1725      -2.93855
       0.1725      -2.93855
        0.175      -2.93781
        0.175      -2.93781
       0.1775      -2.93804
       0.1775      -2.93804
         0.18      -2.93806
         0.18      -2.93806
       0.1825      -2.93769
       0.1825      -2.93769
        0.185      -2.93791
        0.185      -2.93791
       0.1875      -2.93861
       0.1875      -2.93861
         0.19      -2.93855
         0.19      -2.93855
       0.1925      -2.93797
       0.1925      -2.93797
        0.195      -2.93751
        0.195      -2.93751
       0.1975      -2.93788
       0.1975      -2.93788
          0.2      -2.93849
          0.2      -2.93849
       0.2025      -2.93807
       0.2025      -2.93807
        0.205      -2.93707
        0.205      -2.93707
       0.2075       -2.9368
       0.2075       -2.9368
         0.21      -2.93748
         0.21      -2.93748
       0.2125      -2.93761
       0.2125      -2.93761
        0.215      -2.93767
        0.215      -2.93767
       0.2175       -2.9379
       0.2175       -2.9379
         0.22      -2.93766
         0.22      -2.93766
       0.2225      -2.93704
       0.2225      -2.93704
        0.225      -2.93713
        0.225      -2.93713
       0.2275      -2.93752
       0.2275      -2.93752
         0.23      -2.93722
         0.23      -2.93722
       0.2325      -2.93684
       0.2325      -2.93684
        0.235      -2.93727
        0.235      -2.93727
       0.2375      -2.93779
       0.2375      -2.93779
         0.24      -2.93725
         0.24      -2.93725
       0.2425      -2.93618
       0.2425      -2.93618
        0.245      -2.93604
        0.245      -2.93604
       0.2475      -2.93704
       0.2475      -2.93704
         0.25      -2.93741
         0.25      -2.93741
       0.2525      -2.93705
       0.2525      -2.93705
        0.255       -2.9369
        0.255       -2.9369
       0.2575      -2.93691
       0.2575      -2.93691
         0.26      -2.93698
         0.26      -2.93698
       0.2625      -2.93716
       0.2625      -2.93716
        0.265      -2.93727
        0.265      -2.93727
       0.2675      -2.93676
       0.2675      -2.93676
         0.27      -2.93631
         0.27      -2.93631
       0.2725      -2.93645
       0.2725      -2.93645
        0.275      -2.93654
        0.275      -2.93654
       0.2775      -2.93648
       0.2775      -2.93648
         0.28      -2.93722
         0.28      -2.93722
       0.2825      -2.93766
       0.2825      -2.93766
        0.285      -2.93685
        0.285      -2.93685
       0.2875      -2.93605
       0.2875      -2.93605
         0.29      -2.93679
         0.29      -2.93679
       0.2925      -2.93771
       0.2925      -2.93771
        0.295      -2.93757
        0.295      -2.93757
       0.2975      -2.93701
       0.2975      -2.93701
          0.3      -2.93725
          0.3      -2.93725
       0.3025      -2.93766
       0.3025      -2.93766
        0.305      -2.93724
        0.305      -2.93724
       0.3075       -2.9366
       0.3075       -2.9366
         0.31       -2.9365
         0.31       -2.9365
       0.3125      -2.93688
       0.3125      -2.93688
        0.315      -2.93723
        0.315      -2.93723
       0.3175      -2.93737
       0.3175      -2.93737
         0.32      -2.93699
         0.32      -2.93699
       0.3225       -2.9367
       0.3225       -2.9367
        0.325      -2.93696
        0.325      -2.93696
       0.3275      -2.93739
       0.3275      -2.93739
         0.33      -2.93732
         0.33      -2.93732
       0.3325        -2.937
       0.3325        -2.937
        0.335      -2.93642
        0.335      -2.93642
       0.3375      -2.93599
       0.3375      -2.93599
         0.34      -2.93648
         0.34      -2.93648
       0.3425      -2.93741
       0.3425      -2.93741
        0.345      -2.93706
        0.345      -2.93706
       0.3475      -2.93592
       0.3475      -2.93592
         0.35      -2.93587
         0.35      -2.93587
       0.3525       -2.9363
       0.3525       -2.9363
        0.355      -2.93605
        0.355      -2.93605
       0.3575        -2.936
       0.3575        -2.936
         0.36      -2.93684
         0.36      -2.93684
       0.3625      -2.93715
       0.3625      -2.93715
        0.365      -2.93633
        0.365      -2.93633
       0.3675      -2.93566
       0.3675      -2.93566
         0.37      -2.93597
         0.37      -2.93597
       0.3725      -2.93622
       0.3725      -2.93622
        0.375      -2.93581
        0.375      -2.93581
       0.3775      -2.93539
       0.3775      -2.93539
         0.38       -2.9355
         0.38       -2.9355
       0.3825      -2.93584
       0.3825      -2.93584
        0.385      -2.93584
        0.385      -2.93584
       0.3875      -2.93542
       0.3875      -2.93542
         0.39      -2.93516
         0.39      -2.93516
       0.3925      -2.93551
       0.3925      -2.93551
        0.395      -2.93579
        0.395      -2.93579
       0.3975      -2.93531
       0.3975      -2.93531
          0.4      -2.93455
          0.4      -2.93455
       0.4025       -2.9342
       0.4025       -2.9342
        0.405      -2.93474
        0.405      -2.93474
       0.4075      -2.93531
       0.4075      -2.93531
         0.41      -2.93487
         0.41      -2.93487
       0.4125      -2.93354
       0.4125      -2.93354
        0.415      -2.93292
        0.415      -2.93292
       0.4175      -2.93333
       0.4175      -2.93333
         0.42      -2.93359
         0.42      -2.93359
       0.4225      -2.93341
       0.4225      -2.93341
        0.425      -2.93348
        0.425      -2.93348
       0.4275      -2.93362
       0.4275      -2.93362
         0.43      -2.93288
         0.43      -2.93288
       0.4325       -2.9323
       0.4325       -2.9323
        0.435      -2.93278
        0.435      -2.93278
       0.4375      -2.93262
       0.4375      -2.93262
         0.44      -2.93178
         0.44      -2.93178
       0.4425      -2.93171
       0.4425      -2.93171
        0.445      -2.93227
        0.445      -2.93227
       0.4475      -2.93187
       0.4475      -2.93187
         0.45      -2.93138
         0.45      -2.93138
       0.4525      -2.93187
       0.4525      -2.93187
        0.455       -2.9322
        0.455       -2.9322
       0.4575      -2.93192
       0.4575      -2.93192
         0.46      -2.93167
         0.46      -2.93167
       0.4625      -2.93201
       0.4625      -2.93201
        0.465      -2.93232
        0.465      -2.93232
       0.4675       -2.9323
       0.4675       -2.9323
         0.47      -2.93216
         0.47      -2.93216
       0.4725      -2.93241
       0.4725      -2.93241
        0.475      -2.93276
        0.475      -2.93276
       0.4775       -2.9322
       0.4775       -2.9322
         0.48        -2.931
         0.48        -2.931
       0.4825      -2.93086
       0.4825      -2.93086
        0.485       -2.9321
        0.485       -2.9321
       0.4875      -2.93295
       0.4875      -2.93295
         0.49      -2.93248
         0.49      -2.93248
       0.4925      -2.93151
       0.4925      -2.93151
        0.495      -2.93146
        0.495      -2.93146
       0.4975      -2.93207
       0.4975      -2.93207
          0.5       -2.9322
          0.5       -2.9322
       0.5025      -2.93171
       0.5025      -2.93171
        0.505       -2.9315
        0.505       -2.9315
       0.5075      -2.93169
       0.5075      -2.93169
         0.51      -2.93153
         0.51      -2.93153
       0.5125      -2.93133
       0.5125      -2.93133
        0.515      -2.93145
        0.515      -2.93145
       0.5175      -2.93138
       0.5175      -2.93138
         0.52      -2.93098
         0.52      -2.93098
       0.5225       -2.9311
       0.5225       -2.9311
        0.525      -2.93131
        0.525      -2.93131
       0.5275      -2.93094
       0.5275      -2.93094
         0.53      -2.93096
         0.53      -2.93096
       0.5325      -2.93161
       0.5325      -2.93161
        0.535      -2.93157
        0.535      -2.93157
       0.5375      -2.93096
       0.5375      -2.93096
         0.54      -2.93088
         0.54      -2.93088
       0.5425      -2.93068
       0.5425      -2.93068
        0.545      -2.92995
        0.545      -2.92995
       0.5475      -2.92997
       0.5475      -2.92997
         0.55      -2.93099
         0.55      -2.93099
       0.5525      -2.93123
       0.5525      -2.93123
        0.555      -2.93068
        0.555      -2.93068
       0.5575      -2.93045
       0.5575      -2.93045
         0.56      -2.93035
         0.56      -2.93035
       0.5625      -2.93005
       0.5625      -2.93005
        0.565      -2.93043
        0.565      -2.93043
       0.5675      -2.93109
       0.5675      -2.93109
         0.57      -2.93087
         0.57      -2.93087
       0.5725      -2.92982
       0.5725      -2.92982
        0.575      -2.92957
        0.575      -2.92957
       0.5775      -2.93037
       0.5775      -2.93037
         0.58      -2.93082
         0.58      -2.93082
       0.5825      -2.92994
       0.5825      -2.92994
        0.585      -2.92897
        0.585      -2.92897
       0.5875      -2.92932
       0.5875      -2.92932
         0.59      -2.93018
         0.59      -2.93018
       0.5925      -2.92995
       0.5925      -2.92995
        0.595      -2.92937
        0.595      -2.92937
       0.5975      -2.92985
       0.5975      -2.92985
          0.6      -2.93043
          0.6      -2.93043
       0.6025      -2.92989
       0.6025      -2.92989
        0.605      -2.92904
        0.605      -2.92904
       0.6075      -2.92877
       0.6075      -2.92877
         0.61      -2.92894
         0.61      -2.92894
       0.6125      -2.92901
       0.6125      -2.92901
        0.615       -2.9291
        0.615       -2.9291
       0.6175      -2.92919
       0.6175      -2.92919
         0.62      -2.92884
         0.62      -2.92884
       0.6225      -2.92834
       0.6225      -2.92834
       0.6225      -2.92834
        0.625      -2.92807
        0.625      -2.92807
       0.6275       -2.9283
       0.6275       -2.9283
         0.63      -2.92857
         0.63      -2.92857
       0.6325      -2.92874
       0.6325      -2.92874
       0.6325      -2.92874
        0.635       -2.9285
        0.635       -2.9285
        0.635       -2.9285
       0.6375      -2.92789
       0.6375      -2.92789
       0.6375      -2.92789
         0.64      -2.92755
         0.64      -2.92755
         0.64      -2.92755
       0.6425      -2.92796
       0.6425      -2.92796
       0.6425      -2.92796
        0.645      -2.92805
        0.645      -2.92805
        0.645      -2.92805
       0.6475      -2.92745
       0.6475      -2.92745
       0.6475      -2.92745
         0.65      -2.92687
         0.65      -2.92687
         0.65      -2.92687
       0.6525      -2.92659
       0.6525      -2.92659
       0.6525      -2.92659
        0.655      -2.92654
        0.655      -2.92654
        0.655      -2.92654
       0.6575      -2.92713
       0.6575      -2.92713
       0.6575      -2.92713
         0.66      -2.92774
         0.66      -2.92774
         0.66      -2.92774
       0.6625      -2.92712
       0.6625      -2.92712
        0.665      -2.92639
        0.665      -2.92639
       0.6675      -2.92659
       0.6675      -2.92659
         0.67      -2.92679
         0.67      -2.92679
       0.6725      -2.92616
       0.6725      -2.92616
        0.675      -2.92595
        0.675      -2.92595
        0.675      -2.92595
       0.6775      -2.92624
       0.6775      -2.92624
       0.6775      -2.92624
         0.68      -2.92634
         0.68      -2.92634
         0.68      -2.92634
       0.6825      -2.92631
       0.6825      -2.92631
        0.685      -2.92607
        0.685      -2.92607
       0.6875      -2.92502
       0.6875      -2.92502
         0.69      -2.92472
         0.69      -2.92472
       0.6925      -2.92577
       0.6925      -2.92577
        0.695      -2.92638
        0.695      -2.92638
       0.6975      -2.92546
       0.6975      -2.92546
          0.7      -2.92489
          0.7      -2.92489
       0.7025      -2.92545
       0.7025      -2.92545
        0.705      -2.92567
        0.705      -2.92567
       0.7075      -2.92501
       0.7075      -2.92501
         0.71      -2.92478
         0.71      -2.92478
         0.71      -2.92478
       0.7125      -2.92504
       0.7125      -2.92504
        0.715      -2.92465
        0.715      -2.92465
        0.715      -2.92465
       0.7175      -2.92364
       0.7175      -2.92364
         0.72       -2.9237
         0.72       -2.9237
       0.7225      -2.92484
       0.7225      -2.92484
        0.725      -2.92521
        0.725      -2.92521
        0.725      -2.92521
       0.7275      -2.92422
       0.7275      -2.92422
       0.7275      -2.92422
         0.73      -2.92356
         0.73      -2.92356
       0.7325      -2.92382
       0.7325      -2.92382
       0.7325      -2.92382
        0.735      -2.92389
        0.735      -2.92389
       0.7375      -2.92376
       0.7375      -2.92376
         0.74      -2.92392
         0.74      -2.92392
       0.7425      -2.92392
       0.7425      -2.92392
        0.745      -2.92345
        0.745      -2.92345
       0.7475       -2.9233
       0.7475       -2.9233
       0.7475       -2.9233
         0.75      -2.92323
         0.75      -2.92323
         0.75      -2.92323
       0.7525      -2.92265
       0.7525      -2.92265
       0.7525      -2.92265
        0.755      -2.92216
        0.755      -2.92216
       0.7575      -2.92248
       0.7575      -2.92248
         0.76      -2.92296
         0.76      -2.92296
       0.7625      -2.92293
       0.7625      -2.92293
        0.765      -2.92243
        0.765      -2.92243
       0.7675      -2.92195
       0.7675      -2.92195
       0.7675      -2.92195
         0.77      -2.92204
         0.77      -2.92204
       0.7725      -2.92257
       0.7725      -2.92257
        0.775      -2.92249
        0.775      -2.92249
       0.7775      -2.92149
       0.7775      -2.92149
         0.78      -2.92074
         0.78      -2.92074
       0.7825      -2.92101
       0.7825      -2.92101
        0.785      -2.92153
        0.785      -2.92153
       0.7875      -2.92158
       0.7875      -2.92158
         0.79      -2.92126
         0.79      -2.92126
       0.7925      -2.92084
       0.7925      -2.92084
        0.795      -2.92053
        0.795      -2.92053
       0.7975      -2.92043
       0.7975      -2.92043
          0.8      -2.92041
          0.8      -2.92041
       0.8025      -2.92055
       0.8025      -2.92055
        0.805      -2.92102
        0.805      -2.92102
       0.8075      -2.92098
       0.8075      -2.92098
         0.81      -2.92009
         0.81      -2.92009
       0.8125      -2.91944
       0.8125      -2.91944
        0.815      -2.91972
        0.815      -2.91972
       0.8175      -2.91987
       0.8175      -2.91987
         0.82      -2.91917
         0.82      -2.91917
       0.8225      -2.91877
       0.8225      -2.91877
        0.825      -2.91927
        0.825      -2.91927
       0.8275      -2.91961
       0.8275      -2.91961
         0.83      -2.91931
         0.83      -2.91931
       0.8325      -2.91871
       0.8325      -2.91871
        0.835      -2.91865
        0.835      -2.91865
       0.8375      -2.91914
       0.8375      -2.91914
         0.84      -2.91938
         0.84      -2.91938
       0.8425      -2.91838
       0.8425      -2.91838
        0.845      -2.91759
        0.845      -2.91759
       0.8475      -2.91803
       0.8475      -2.91803
         0.85      -2.91873
         0.85      -2.91873
       0.8525      -2.91835
       0.8525      -2.91835
        0.855      -2.91811
        0.855      -2.91811
       0.8575      -2.91791
       0.8575      -2.91791
         0.86      -2.91697
         0.86      -2.91697
       0.8625      -2.91655
       0.8625      -2.91655
        0.865      -2.91792
        0.865      -2.91792
       0.8675      -2.91849
       0.8675      -2.91849
         0.87      -2.91747
         0.87      -2.91747
       0.8725      -2.91692
       0.8725      -2.91692
        0.875      -2.91749
        0.875      -2.91749
       0.8775      -2.91713
       0.8775      -2.91713
         0.88      -2.91632
         0.88      -2.91632
       0.8825      -2.91626
       0.8825      -2.91626
        0.885      -2.91665
        0.885      -2.91665
       0.8875      -2.91633
       0.8875      -2.91633
         0.89      -2.91587
         0.89      -2.91587
       0.8925      -2.91582
       0.8925      -2.91582
        0.895      -2.91602
        0.895      -2.91602
       0.8975      -2.91589
       0.8975      -2.91589
          0.9      -2.91567
          0.9      -2.91567
       0.9025      -2.91541
       0.9025      -2.91541
        0.905      -2.91524
        0.905      -2.91524
       0.9075      -2.91508
       0.9075      -2.91508
         0.91      -2.91505
         0.91      -2.91505
       0.9125      -2.91468
       0.9125      -2.91468
        0.915       -2.9144
        0.915       -2.9144
       0.9175      -2.91464
       0.9175      -2.91464
         0.92      -2.91472
         0.92      -2.91472
       0.9225      -2.91349
       0.9225      -2.91349
        0.925      -2.91227
        0.925      -2.91227
       0.9275      -2.91258
       0.9275      -2.91258
         0.93       -2.9138
         0.93       -2.9138
       0.9325       -2.9139
       0.9325       -2.9139
        0.935      -2.91309
        0.935      -2.91309
       0.9375      -2.91223
       0.9375      -2.91223
         0.94      -2.91222
         0.94      -2.91222
       0.9425      -2.91236
       0.9425      -2.91236
        0.945      -2.91219
        0.945      -2.91219
       0.9475      -2.91164
       0.9475      -2.91164
         0.95      -2.91144
         0.95      -2.91144
       0.9525      -2.91133
       0.9525      -2.91133
        0.955      -2.91099
        0.955      -2.91099
       0.9575      -2.91076
       0.9575      -2.91076
         0.96      -2.91093
         0.96      -2.91093
       0.9625      -2.91068
       0.9625      -2.91068
        0.965      -2.91025
        0.965      -2.91025
       0.9675      -2.91017
       0.9675      -2.91017
         0.97      -2.91028
         0.97      -2.91028
       0.9725      -2.90999
       0.9725      -2.90999
        0.975      -2.90985
        0.975      -2.90985
       0.9775      -2.90992
       0.9775      -2.90992
         0.98      -2.91012
         0.98      -2.91012
       0.9825      -2.90984
       0.9825      -2.90984
        0.985      -2.90898
        0.985      -2.90898
       0.9875       -2.9083
       0.9875       -2.9083
         0.99      -2.90854
         0.99      -2.90854
       0.9925      -2.90861
       0.9925      -2.90861
        0.995      -2.90847
        0.995      -2.90847
       0.9975      -2.90881
       0.9975      -2.90881
            1      -2.90936
            1      -2.90936
       1.0025      -2.90788
       1.0025      -2.90788
        1.005      -2.90676
        1.005      -2.90676
       1.0075      -2.90711
       1.0075      -2.90711
         1.01      -2.90834
         1.01      -2.90834
       1.0125      -2.90805
       1.0125      -2.90805
        1.015      -2.90688
        1.015      -2.90688
       1.0175      -2.90631
       1.0175      -2.90631
         1.02       -2.9069
         1.02       -2.9069
       1.0225      -2.90722
       1.0225      -2.90722
        1.025      -2.90684
        1.025      -2.90684
       1.0275      -2.90614
       1.0275      -2.90614
         1.03      -2.90601
         1.03      -2.90601
       1.0325      -2.90601
       1.0325      -2.90601
        1.035      -2.90604
        1.035      -2.90604
       1.0375      -2.90613
       1.0375      -2.90613
         1.04      -2.90608
         1.04      -2.90608
       1.0425      -2.90589
       1.0425      -2.90589
        1.045      -2.90601
        1.045      -2.90601
       1.0475       -2.9059
       1.0475       -2.9059
         1.05      -2.90497
         1.05      -2.90497
       1.0525      -2.90417
       1.0525      -2.90417
        1.055      -2.90473
        1.055      -2.90473
       1.0575      -2.90511
       1.0575      -2.90511
         1.06      -2.90467
         1.06      -2.90467
       1.0625      -2.90461
       1.0625      -2.90461
        1.065      -2.90488
        1.065      -2.90488
       1.0675        -2.904
       1.0675        -2.904
         1.07      -2.90328
         1.07      -2.90328
       1.0725      -2.90406
       1.0725      -2.90406
        1.075       -2.9047
        1.075       -2.9047
       1.0775      -2.90398
       1.0775      -2.90398
         1.08      -2.90352
         1.08      -2.90352
       1.0825      -2.90356
       1.0825      -2.90356
        1.085      -2.90323
        1.085      -2.90323
       1.0875      -2.90295
       1.0875      -2.90295
         1.09      -2.90337
         1.09      -2.90337
       1.0925      -2.90315
       1.0925      -2.90315
        1.095      -2.90209
        1.095      -2.90209
       1.0975      -2.90159
       1.0975      -2.90159
          1.1      -2.90216
          1.1      -2.90216
       1.1025      -2.90278
       1.1025      -2.90278
        1.105      -2.90298
        1.105      -2.90298
       1.1075       -2.9023
       1.1075       -2.9023
         1.11      -2.90165
         1.11      -2.90165
       1.1125      -2.90182
       1.1125      -2.90182
        1.115       -2.9022
        1.115       -2.9022
       1.1175      -2.90143
       1.1175      -2.90143
         1.12      -2.90064
         1.12      -2.90064
       1.1225      -2.90135
       1.1225      -2.90135
        1.125      -2.90212
        1.125      -2.90212
       1.1275      -2.90147
       1.1275      -2.90147
         1.13      -2.90037
         1.13      -2.90037
       1.1325      -2.90023
       1.1325      -2.90023
        1.135      -2.90085
        1.135      -2.90085
       1.1375      -2.90094
       1.1375      -2.90094
         1.14      -2.90087
         1.14      -2.90087
       1.1425      -2.90086
       1.1425      -2.90086
        1.145      -2.90078
        1.145      -2.90078
       1.1475      -2.90042
       1.1475      -2.90042
         1.15      -2.90023
         1.15      -2.90023
       1.1525      -2.90051
       1.1525      -2.90051
        1.155      -2.90048
        1.155      -2.90048
       1.1575      -2.89991
       1.1575      -2.89991
         1.16      -2.89939
         1.16      -2.89939
       1.1625      -2.89922
       1.1625      -2.89922
        1.165      -2.89966
        1.165      -2.89966
       1.1675      -2.90018
       1.1675      -2.90018
         1.17      -2.90044
         1.17      -2.90044
       1.1725      -2.90006
       1.1725      -2.90006
        1.175      -2.89938
        1.175      -2.89938
       1.1775      -2.89915
       1.1775      -2.89915
         1.18      -2.89958
         1.18      -2.89958
       1.1825      -2.89989
       1.1825      -2.89989
        1.185      -2.89961
        1.185      -2.89961
       1.1875      -2.89928
       1.1875      -2.89928
         1.19      -2.89957
         1.19      -2.89957
       1.1925      -2.89947
       1.1925      -2.89947
        1.195      -2.89884
        1.195      -2.89884
       1.1975      -2.89862
       1.1975      -2.89862
          1.2       -2.8987
          1.2       -2.8987
       1.2025      -2.89865
       1.2025      -2.89865
        1.205      -2.89915
        1.205      -2.89915
       1.2075       -2.8995
       1.2075       -2.8995
         1.21      -2.89884
         1.21      -2.89884
       1.2125      -2.89801
       1.2125      -2.89801
        1.215      -2.89853
        1.215      -2.89853
       1.2175      -2.89947
       1.2175      -2.89947
         1.22      -2.89893
         1.22      -2.89893
       1.2225      -2.89742
       1.2225      -2.89742
        1.225      -2.89729
        1.225      -2.89729
       1.2275       -2.8981
       1.2275       -2.8981
         1.23       -2.8984
         1.23       -2.8984
       1.2325      -2.89784
       1.2325      -2.89784
        1.235      -2.89804
        1.235      -2.89804
       1.2375      -2.89816
       1.2375      -2.89816
         1.24      -2.89749
         1.24      -2.89749
       1.2425      -2.89672
       1.2425      -2.89672
        1.245      -2.89746
        1.245      -2.89746
       1.2475      -2.89818
       1.2475      -2.89818
         1.25       -2.8981
         1.25       -2.8981
       1.2525      -2.89748
       1.2525      -2.89748
        1.255      -2.89723
        1.255      -2.89723
       1.2575      -2.89702
       1.2575      -2.89702
         1.26      -2.89713
         1.26      -2.89713
       1.2625      -2.89695
       1.2625      -2.89695
        1.265      -2.89658
        1.265      -2.89658
       1.2675      -2.89661
       1.2675      -2.89661
         1.27      -2.89727
         1.27      -2.89727
       1.2725      -2.89737
       1.2725      -2.89737
        1.275      -2.89692
        1.275      -2.89692
       1.2775      -2.89689
       1.2775      -2.89689
         1.28      -2.89728
         1.28      -2.89728
       1.2825      -2.89734
       1.2825      -2.89734
        1.285      -2.89739
        1.285      -2.89739
       1.2875      -2.89713
       1.2875      -2.89713
         1.29      -2.89651
         1.29      -2.89651
       1.2925      -2.89646
       1.2925      -2.89646
        1.295      -2.89736
        1.295      -2.89736
       1.2975      -2.89813
       1.2975      -2.89813
          1.3      -2.89759
          1.3      -2.89759