# Probe 0 (0.85 0 0.1)
#       Probe             0
#        Time
            0      -878.644
            0      -878.644
        0.005       1568.32
        0.005       1568.32
         0.01       1568.35
         0.01       1568.35
        0.015       1568.35
        0.015       1568.35
         0.02       1568.35
         0.02       1568.35
        0.025       1568.36
        0.025       1568.36
         0.03       1568.37
         0.03       1568.37
        0.035       1568.37
        0.035       1568.37
         0.04       1568.38
         0.04       1568.38
        0.045       1568.39
        0.045       1568.39
         0.05       1568.39
         0.05       1568.39
        0.055        1568.4
        0.055        1568.4
         0.06       1568.41
         0.06       1568.41
        0.065       1568.42
        0.065       1568.42
         0.07       1568.43
         0.07       1568.43
        0.075       1568.44
        0.075       1568.44
         0.08       1568.46
         0.08       1568.46
        0.085       1568.47
        0.085       1568.47
         0.09       1568.48
         0.09       1568.48
         0.09       1568.48
        0.095        1568.5
        0.095        1568.5
        0.095        1568.5
          0.1       1568.52
          0.1       1568.52
          0.1       1568.52
        0.105       1568.53
        0.105       1568.53
        0.105       1568.53
         0.11       1568.55
         0.11       1568.55
        0.115       1568.57
        0.115       1568.57
         0.12       1568.59
         0.12       1568.59
        0.125       1568.61
        0.125       1568.61
         0.13       1568.64
         0.13       1568.64
        0.135       1568.66
        0.135       1568.66
         0.14       1568.69
         0.14       1568.69
        0.145       1568.72
        0.145       1568.72
         0.15       1568.74
         0.15       1568.74
        0.155       1568.77
        0.155       1568.77
         0.16       1568.81
         0.16       1568.81
        0.165       1568.84
        0.165       1568.84
         0.17       1568.87
         0.17       1568.87
        0.175       1568.91
        0.175       1568.91
         0.18       1568.95
         0.18       1568.95
        0.185       1568.99
        0.185       1568.99
         0.19       1569.03
         0.19       1569.03
        0.195       1569.07
        0.195       1569.07
        0.195       1569.07
          0.2       1569.12
          0.2       1569.12
        0.205       1569.17
        0.205       1569.17
        0.205       1569.17
         0.21       1569.22
         0.21       1569.22
         0.21       1569.22
        0.215       1569.27
        0.215       1569.27
         0.22       1569.33
         0.22       1569.33
         0.22       1569.33
        0.225       1569.38
        0.225       1569.38
         0.23       1569.44
         0.23       1569.44
        0.235        1569.5
        0.235        1569.5
         0.24       1569.57
         0.24       1569.57
        0.245       1569.63
        0.245       1569.63
         0.25        1569.7
         0.25        1569.7
        0.255       1569.77
        0.255       1569.77
         0.26       1569.85
         0.26       1569.85
        0.265       1569.92
        0.265       1569.92
         0.27       1570.01
         0.27       1570.01
        0.275       1570.09
        0.275       1570.09
         0.28       1570.17
         0.28       1570.17
        0.285       1570.26
        0.285       1570.26
         0.29       1570.35
         0.29       1570.35
        0.295       1570.45
        0.295       1570.45
        0.295       1570.45
          0.3       1570.55
          0.3       1570.55
        0.305       1570.65
        0.305       1570.65
         0.31       1570.75
         0.31       1570.75
         0.31       1570.75
        0.315       1570.86
        0.315       1570.86
         0.32       1570.98
         0.32       1570.98
        0.325       1571.09
        0.325       1571.09
         0.33       1571.21
         0.33       1571.21
        0.335       1571.33
        0.335       1571.33
         0.34       1571.46
         0.34       1571.46
        0.345       1571.59
        0.345       1571.59
         0.35       1571.73
         0.35       1571.73
        0.355       1571.87
        0.355       1571.87
         0.36       1572.01
         0.36       1572.01
        0.365       1572.16
        0.365       1572.16
         0.37       1572.31
         0.37       1572.31
        0.375       1572.47
        0.375       1572.47
         0.38       1572.63
         0.38       1572.63
        0.385        1572.8
        0.385        1572.8
         0.39       1572.97
         0.39       1572.97
        0.395       1573.14
        0.395       1573.14
          0.4       1573.32
          0.4       1573.32
        0.405       1573.51
        0.405       1573.51
         0.41        1573.7
         0.41        1573.7
        0.415       1573.89
        0.415       1573.89
         0.42        1574.1
         0.42        1574.1
        0.425        1574.3
        0.425        1574.3
         0.43       1574.51
         0.43       1574.51
        0.435       1574.73
        0.435       1574.73
         0.44       1574.95
         0.44       1574.95
        0.445       1575.18
        0.445       1575.18
         0.45       1575.41
         0.45       1575.41
        0.455       1575.65
        0.455       1575.65
         0.46        1575.9
         0.46        1575.9
        0.465       1576.14
        0.465       1576.14
         0.47       1576.41
         0.47       1576.41
        0.475       1576.66
        0.475       1576.66
         0.48       1576.94
         0.48       1576.94
        0.485       1577.21
        0.485       1577.21
         0.49       1577.49
         0.49       1577.49
        0.495       1577.78
        0.495       1577.78
          0.5       1578.07
          0.5       1578.07
        0.505       1578.37
        0.505       1578.37
         0.51       1578.67
         0.51       1578.67
        0.515       1578.99
        0.515       1578.99
         0.52        1579.3
         0.52        1579.3
        0.525       1579.63
        0.525       1579.63
         0.53       1579.96
         0.53       1579.96
        0.535        1580.3
        0.535        1580.3
         0.54       1580.65
         0.54       1580.65
        0.545          1581
        0.545          1581
         0.55       1581.36
         0.55       1581.36
        0.555       1581.72
        0.555       1581.72
         0.56       1582.09
         0.56       1582.09
        0.565       1582.47
        0.565       1582.47
         0.57       1582.86
         0.57       1582.86
        0.575       1583.25
        0.575       1583.25
         0.58       1583.65
         0.58       1583.65
        0.585       1584.06
        0.585       1584.06
         0.59       1584.47
         0.59       1584.47
        0.595       1584.89
        0.595       1584.89
          0.6       1585.32
          0.6       1585.32
        0.605       1585.75
        0.605       1585.75
         0.61       1586.19
         0.61       1586.19
        0.615       1586.64
        0.615       1586.64
         0.62        1587.1
         0.62        1587.1
        0.625       1587.56
        0.625       1587.56
         0.63       1588.03
         0.63       1588.03
        0.635        1588.5
        0.635        1588.5
         0.64       1588.99
         0.64       1588.99
        0.645       1589.48
        0.645       1589.48
         0.65       1589.97
         0.65       1589.97
        0.655       1590.48
        0.655       1590.48
         0.66       1590.99
         0.66       1590.99
        0.665       1591.51
        0.665       1591.51
         0.67       1592.03
         0.67       1592.03
        0.675       1592.56
        0.675       1592.56
         0.68        1593.1
         0.68        1593.1
        0.685       1593.65
        0.685       1593.65
         0.69        1594.2
         0.69        1594.2
        0.695       1594.76
        0.695       1594.76
          0.7       1595.32
          0.7       1595.32
        0.705       1595.89
        0.705       1595.89
         0.71       1596.47
         0.71       1596.47
        0.715       1597.06
        0.715       1597.06
         0.72       1597.64
         0.72       1597.64
        0.725       1598.25
        0.725       1598.25
         0.73       1598.85
         0.73       1598.85
        0.735       1599.46
        0.735       1599.46
         0.74       1600.07
         0.74       1600.07
        0.745        1600.7
        0.745        1600.7
         0.75       1601.33
         0.75       1601.33
        0.755       1601.96
        0.755       1601.96
         0.76        1602.6
         0.76        1602.6
        0.765       1603.25
        0.765       1603.25
         0.77        1603.9
         0.77        1603.9
        0.775       1604.55
        0.775       1604.55
         0.78       1605.22
         0.78       1605.22
        0.785       1605.89
        0.785       1605.89
         0.79       1606.56
         0.79       1606.56
        0.795       1607.24
        0.795       1607.24
          0.8       1607.92
          0.8       1607.92
        0.805       1608.61
        0.805       1608.61
         0.81       1609.31
         0.81       1609.31
        0.815       1610.01
        0.815       1610.01
         0.82       1610.72
         0.82       1610.72
        0.825       1611.42
        0.825       1611.42
         0.83       1612.14
         0.83       1612.14
        0.835       1612.86
        0.835       1612.86
         0.84       1613.58
         0.84       1613.58
        0.845       1614.31
        0.845       1614.31
         0.85       1615.04
         0.85       1615.04
        0.855       1615.78
        0.855       1615.78
         0.86       1616.52
         0.86       1616.52
        0.865       1617.26
        0.865       1617.26
         0.87       1618.01
         0.87       1618.01
        0.875       1618.76
        0.875       1618.76
         0.88       1619.52
         0.88       1619.52
        0.885       1620.28
        0.885       1620.28
         0.89       1621.04
         0.89       1621.04
        0.895       1621.81
        0.895       1621.81
          0.9       1622.58
          0.9       1622.58
        0.905       1623.35
        0.905       1623.35
         0.91       1624.13
         0.91       1624.13
        0.915        1624.9
        0.915        1624.9
         0.92       1625.69
         0.92       1625.69
        0.925       1626.47
        0.925       1626.47
         0.93       1627.26
         0.93       1627.26
        0.935       1628.05
        0.935       1628.05
         0.94       1628.84
         0.94       1628.84
        0.945       1629.63
        0.945       1629.63
         0.95       1630.43
         0.95       1630.43
        0.955       1631.23
        0.955       1631.23
         0.96       1632.03
         0.96       1632.03
        0.965       1632.83
        0.965       1632.83
         0.97       1633.63
         0.97       1633.63
        0.975       1634.44
        0.975       1634.44
         0.98       1635.25
         0.98       1635.25
        0.985       1636.05
        0.985       1636.05
         0.99       1636.86
         0.99       1636.86
        0.995       1637.68
        0.995       1637.68
            1       1638.49
            1       1638.49
        1.005       1639.41
        1.005       1639.41
         1.01       1640.23
         1.01       1640.23
        1.015       1641.05
        1.015       1641.05
         1.02       1641.87
         1.02       1641.87
        1.025        1642.7
        1.025        1642.7
         1.03       1643.52
         1.03       1643.52
        1.035       1644.34
        1.035       1644.34
         1.04       1645.17
         1.04       1645.17
        1.045          1646
        1.045          1646
         1.05       1646.83
         1.05       1646.83
        1.055       1647.65
        1.055       1647.65
         1.06       1648.49
         1.06       1648.49
        1.065       1649.31
        1.065       1649.31
         1.07       1650.15
         1.07       1650.15
        1.075       1650.98
        1.075       1650.98
         1.08       1651.81
         1.08       1651.81
        1.085       1652.65
        1.085       1652.65
         1.09       1653.49
         1.09       1653.49
        1.095       1654.32
        1.095       1654.32
          1.1       1655.16
          1.1       1655.16
        1.105          1656
        1.105          1656
         1.11       1656.84
         1.11       1656.84
        1.115       1657.67
        1.115       1657.67
         1.12       1658.52
         1.12       1658.52
        1.125       1659.36
        1.125       1659.36
         1.13        1660.2
         1.13        1660.2
        1.135       1661.04
        1.135       1661.04
         1.14       1661.89
         1.14       1661.89
        1.145       1662.73
        1.145       1662.73
         1.15       1663.57
         1.15       1663.57
        1.155       1664.42
        1.155       1664.42
         1.16       1665.26
         1.16       1665.26
        1.165       1666.11
        1.165       1666.11
         1.17       1666.96
         1.17       1666.96
        1.175       1667.81
        1.175       1667.81
         1.18       1668.66
         1.18       1668.66
        1.185       1669.51
        1.185       1669.51
         1.19       1670.36
         1.19       1670.36
        1.195       1671.21
        1.195       1671.21
          1.2       1672.07
          1.2       1672.07
        1.205       1672.92
        1.205       1672.92
         1.21       1673.78
         1.21       1673.78
        1.215       1674.63
        1.215       1674.63
         1.22       1675.49
         1.22       1675.49
        1.225       1676.35
        1.225       1676.35
         1.23       1677.21
         1.23       1677.21
        1.235       1678.07
        1.235       1678.07
         1.24       1678.94
         1.24       1678.94
        1.245       1679.81
        1.245       1679.81
         1.25       1680.67
         1.25       1680.67
        1.255       1681.54
        1.255       1681.54
         1.26       1682.41
         1.26       1682.41
        1.265       1683.29
        1.265       1683.29
         1.27       1684.16
         1.27       1684.16
        1.275       1685.04
        1.275       1685.04
         1.28       1685.92
         1.28       1685.92
        1.285        1686.8
        1.285        1686.8
         1.29       1687.68
         1.29       1687.68
        1.295       1688.57
        1.295       1688.57
          1.3       1689.46
          1.3       1689.46
        1.305       1690.35
        1.305       1690.35
         1.31       1691.25
         1.31       1691.25
        1.315       1692.15
        1.315       1692.15
         1.32       1693.05
         1.32       1693.05
        1.325       1693.95
        1.325       1693.95
         1.33       1694.86
         1.33       1694.86
        1.335       1695.77
        1.335       1695.77
         1.34       1696.69
         1.34       1696.69
        1.345        1697.6
        1.345        1697.6
         1.35       1698.52
         1.35       1698.52
        1.355       1699.45
        1.355       1699.45
         1.36       1700.38
         1.36       1700.38
        1.365       1701.31
        1.365       1701.31
         1.37       1702.25
         1.37       1702.25
        1.375       1703.19
        1.375       1703.19
         1.38       1704.14
         1.38       1704.14
        1.385       1705.09
        1.385       1705.09
         1.39       1706.04
         1.39       1706.04
        1.395          1707
        1.395          1707
          1.4       1707.96
          1.4       1707.96
        1.405       1708.93
        1.405       1708.93
         1.41       1709.91
         1.41       1709.91
        1.415       1710.89
        1.415       1710.89
         1.42       1711.87
         1.42       1711.87
        1.425       1712.86
         1.43       1713.86
        1.435       1714.85
         1.44       1715.86
        1.445       1716.88
         1.45        1717.9
        1.455       1718.92
         1.46       1719.95
        1.465       1720.98
         1.47       1722.03
        1.475       1723.08
         1.48       1724.13
        1.485       1725.19
         1.49       1726.26
        1.495       1727.33
          1.5       1728.41
        1.505        1729.5
         1.51       1730.59
        1.515       1731.69
         1.52        1732.8
        1.525       1733.92
         1.53       1735.04
        1.535       1736.17
         1.54        1737.3
        1.545       1738.45
         1.55       1739.59
        1.555       1740.75
         1.56       1741.92
        1.565       1743.09
         1.57       1744.26
        1.575       1745.45
         1.58       1746.64
        1.585       1747.84
         1.59       1749.05
        1.595       1750.26
          1.6       1751.48
        1.605       1752.71
         1.61       1753.94
        1.615       1755.19
         1.62       1756.44
        1.625       1757.69
         1.63       1758.95
        1.635       1760.22
         1.64        1761.5
        1.645       1762.78
         1.65       1764.07
        1.655       1765.37
         1.66       1766.67
        1.665       1767.98
         1.67       1769.29
        1.675       1770.61
         1.68       1771.94
        1.685       1773.27
         1.69       1774.61
        1.695       1775.96
          1.7       1777.31
        1.705       1778.66
         1.71       1780.02
        1.715       1781.39
         1.72       1782.76
        1.725       1784.14
         1.73       1785.52
        1.735       1786.91
         1.74        1788.3
        1.745        1789.7
         1.75        1791.1
        1.755       1792.51
         1.76       1793.92
        1.765       1795.33
         1.77       1796.75
        1.775       1798.17
         1.78        1799.6
        1.785       1801.03
         1.79       1802.46
        1.795       1803.89
          1.8       1805.33
        1.805       1806.77
         1.81       1808.22
        1.815       1809.66
         1.82       1811.11
        1.825       1812.57
         1.83       1814.02
        1.835       1815.47
         1.84       1816.94
        1.845        1818.4
         1.85       1819.86
        1.855       1821.32
         1.86       1822.79
        1.865       1824.25
         1.87       1825.72
        1.875       1827.19
         1.88       1828.66
        1.885       1830.13
         1.89        1831.6
        1.895       1833.07
          1.9       1834.54
        1.905       1836.01
         1.91       1837.48
        1.915       1838.95
         1.92       1840.42
        1.925        1841.9
         1.93       1843.37
        1.935       1844.84
         1.94       1846.31
        1.945       1847.78
         1.95       1849.25
        1.955       1850.71
         1.96       1852.18
        1.965       1853.65
         1.97       1855.11
        1.975       1856.57
         1.98       1858.04
        1.985       1859.51
         1.99       1860.96
        1.995       1862.42
            2       1863.88
        2.005       1865.07
         2.01       1866.51
        2.015       1867.94
         2.02       1869.38
        2.025       1870.82
         2.03       1872.26
        2.035       1873.68
         2.04       1875.12
        2.045       1876.55
         2.05       1877.97
        2.055       1879.38
         2.06       1880.79
        2.065       1882.21
         2.07       1883.62
        2.075       1885.01
         2.08       1886.41
        2.085       1887.81
         2.09       1889.21
        2.095       1890.59
          2.1       1891.97
        2.105       1893.35
         2.11       1894.73
        2.115       1896.09
         2.12       1897.45
        2.125       1898.82
         2.13       1900.18
         2.13       1900.18
        2.135        1901.5
        2.135        1901.5
         2.14       1902.89
         2.14       1902.89
        2.145       1904.21
        2.145       1904.21
         2.15       1905.55
         2.15       1905.55
        2.155       1906.87
        2.155       1906.87
         2.16       1908.21
         2.16       1908.21
        2.165       1909.53
        2.165       1909.53
         2.17       1910.84
         2.17       1910.84
        2.175       1912.15
        2.175       1912.15
         2.18       1913.46
         2.18       1913.46
        2.185       1914.76
        2.185       1914.76
         2.19       1916.05
         2.19       1916.05
        2.195       1917.33
        2.195       1917.33
          2.2       1918.62
          2.2       1918.62
        2.205        1919.9
        2.205        1919.9
         2.21       1921.17
         2.21       1921.17
        2.215       1922.43
        2.215       1922.43
         2.22       1923.69
         2.22       1923.69
        2.225       1924.95
        2.225       1924.95
         2.23       1926.19
         2.23       1926.19
        2.235       1927.43
        2.235       1927.43
         2.24       1928.67
         2.24       1928.67
        2.245        1929.9
        2.245        1929.9
         2.25       1931.11
         2.25       1931.11
        2.255       1932.32
        2.255       1932.32
         2.26       1933.53
         2.26       1933.53
        2.265       1934.74
        2.265       1934.74
         2.27       1935.93
         2.27       1935.93
        2.275       1937.11
        2.275       1937.11
         2.28        1938.3
         2.28        1938.3
        2.285       1939.47
        2.285       1939.47
         2.29       1940.63
         2.29       1940.63
        2.295       1941.78
        2.295       1941.78
          2.3       1942.94
          2.3       1942.94
        2.305       1944.09
        2.305       1944.09
         2.31       1945.22
         2.31       1945.22
        2.315       1946.34
        2.315       1946.34
         2.32       1947.46
         2.32       1947.46
        2.325       1948.58
        2.325       1948.58
         2.33       1949.68
         2.33       1949.68
        2.335       1950.77
        2.335       1950.77
         2.34       1951.85
        2.345       1952.96
         2.35       1953.97
        2.355       1955.06
         2.36        1956.1
        2.365       1957.16
         2.37       1958.19
        2.375       1959.21
         2.38       1960.22
        2.385       1961.23
         2.39       1962.23
        2.395       1963.22
          2.4       1964.19
        2.405       1965.16
         2.41       1966.12
        2.415       1967.07
         2.42          1968
        2.425       1968.93
         2.43       1969.86
        2.435       1970.76
         2.44       1971.65
        2.445       1972.55
         2.45       1973.44
        2.455       1974.31
         2.46       1975.15
        2.465          1976
         2.47       1976.84
        2.475       1977.67
         2.48       1978.48
        2.485       1979.29
         2.49       1980.09
        2.495       1980.87
          2.5       1981.64
        2.505        1982.4
         2.51       1983.17
        2.515       1983.91
         2.52       1984.63
        2.525       1985.35
         2.53       1986.07
        2.535       1986.78
         2.54       1987.46
        2.545       1988.13
         2.55       1988.81
        2.555       1989.48
         2.56       1990.12
        2.565       1990.75
         2.57       1991.39
        2.575       1992.02
         2.58       1992.61
        2.585        1993.2
         2.59        1993.8
        2.595        1994.4
          2.6       1994.95
        2.605       1995.49
         2.61       1996.06
        2.615       1996.62
         2.62       1997.14
        2.625       1997.65
         2.63       1998.17
        2.635       1998.69
         2.64       1999.17
        2.645       1999.65
         2.65       2000.14
        2.655       2000.64
         2.66       2001.08
        2.665       2001.51
         2.67       2001.97
        2.675       2002.44
         2.68       2002.86
        2.685       2003.25
         2.69       2003.68
        2.695       2004.12
          2.7       2004.52
        2.705       2004.88
         2.71       2005.28
        2.715        2005.7
         2.72       2006.06
        2.725       2006.39
         2.73       2006.77
        2.735       2007.18
         2.74       2007.53
        2.745       2007.82
         2.75       2008.16
        2.755       2008.56
         2.76        2008.9
        2.765       2009.17
         2.77       2009.49
        2.775       2009.86
         2.78       2010.18
        2.785       2010.44
         2.79       2010.75
        2.795       2011.11
          2.8       2011.42
        2.805       2011.65
         2.81       2011.93
        2.815       2012.29
         2.82       2012.61
        2.825       2012.82
         2.83       2013.07
         2.83       2013.07
        2.835       2013.47
         2.84       2013.63
         2.84       2013.63
        2.845       2013.98
         2.85       2014.21
         2.85       2014.21
        2.855       2014.59
         2.86        2014.7
         2.86        2014.7
        2.865       2015.01
         2.87       2015.34
         2.87       2015.34
        2.875       2015.62
         2.88        2015.8
        2.885       2016.13
         2.89        2016.3
         2.89        2016.3
        2.895       2016.69
          2.9       2016.87
        2.905       2017.18
         2.91       2017.37
        2.915       2017.69
         2.92       2017.97
        2.925       2018.15
         2.93       2018.39
        2.935       2018.73
         2.94       2019.03
         2.94       2019.03
        2.945       2019.18
         2.95        2019.4
         2.95        2019.4
        2.955       2019.74
         2.96       2019.96
         2.96       2019.96
        2.965       2020.22
         2.97       2020.49
        2.975       2020.72
         2.98       2021.04
        2.985       2021.23
         2.99       2021.44
        2.995       2021.77
            3        2022.1
        3.005       2022.26
         3.01       2022.42
        3.015       2022.76
         3.02       2023.13
         3.02       2023.13
        3.025       2023.31
        3.025       2023.31
         3.03       2023.48
        3.035       2023.82
        3.035       2023.82
         3.04       2024.08
         3.04       2024.08
        3.045       2024.22
        3.045       2024.22
         3.05       2024.57
        3.055       2024.86
         3.06       2025.11
        3.065       2025.33
        3.065       2025.33
         3.07       2025.42
         3.07       2025.42
        3.075       2025.99
        3.075       2025.99
         3.08       2026.13
        3.085       2026.27
        3.085       2026.27
         3.09       2026.59
         3.09       2026.59
        3.095       2026.89
        3.095       2026.89
          3.1       2027.09
        3.105       2027.32
         3.11       2027.57
        3.115       2027.87
         3.12       2028.17
        3.125       2028.34
         3.13       2028.51
        3.135       2028.83
        3.135       2028.83
         3.14       2029.25
         3.14       2029.25
        3.145       2029.29
         3.15       2029.59
        3.155       2029.79
        3.155       2029.79
         3.16       2030.06
         3.16       2030.06
        3.165       2030.31
         3.17       2030.65
        3.175       2030.75
         3.18       2031.11
        3.185       2031.27
         3.19       2031.44
        3.195       2031.77
          3.2       2032.11
        3.205        2032.3
         3.21        2032.4
        3.215       2032.62
        3.215       2032.62
         3.22       2032.94
         3.22       2032.94
        3.225       2033.18
        3.225       2033.18
         3.23       2033.41
        3.235        2033.6
        3.235        2033.6
         3.24       2033.94
         3.24       2033.94
        3.245       2033.92
        3.245       2033.92
         3.25       2034.27
        3.255       2034.52
         3.26       2034.79
        3.265       2034.98
        3.265       2034.98
         3.27       2034.97
         3.27       2034.97
        3.275       2035.36
         3.28       2035.61
        3.285       2035.77
        3.285       2035.77
         3.29       2035.94
        3.295       2036.24
          3.3       2036.42
        3.305       2036.56
         3.31        2036.7
        3.315       2036.99
        3.315       2036.99
         3.32       2037.33
         3.32       2037.33
        3.325       2037.29
        3.325       2037.29
         3.33        2037.5
         3.33        2037.5
        3.335       2037.79
         3.34       2038.04
        3.345       2038.09
         3.35       2038.33
        3.355       2038.52
         3.36       2038.75
        3.365       2038.87
         3.37       2038.96
        3.375       2039.21
         3.38        2039.5
        3.385       2039.61
        3.385       2039.61
         3.39       2039.57
         3.39       2039.57
        3.395       2039.93
          3.4       2040.08
        3.405       2040.26
        3.405       2040.26
         3.41       2040.47
         3.41       2040.47
        3.415       2040.51
         3.42       2040.64
        3.425        2040.9
         3.43       2040.97
        3.435       2041.17
         3.44       2041.39
        3.445        2041.5
        3.445        2041.5