             0	   2.453469e-01  -2.507133e-01
0	   2.453469e-01  -2.507133e-01
0.005	   2.453469e-01  -2.507133e-01
0.005	   2.453469e-01  -2.507133e-01
0.01	   2.453469e-01  -2.507132e-01
0.01	   2.453469e-01  -2.507132e-01
0.015	   2.453469e-01  -2.507132e-01
0.015	   2.453469e-01  -2.507132e-01
0.02	   2.453470e-01  -2.507132e-01
0.02	   2.453470e-01  -2.507132e-01
0.025	   2.453471e-01  -2.507131e-01
0.025	   2.453471e-01  -2.507131e-01
0.03	   2.453471e-01  -2.507130e-01
0.03	   2.453471e-01  -2.507130e-01
0.035	   2.453472e-01  -2.507129e-01
0.035	   2.453472e-01  -2.507129e-01
0.04	   2.453474e-01  -2.507128e-01
0.04	   2.453474e-01  -2.507128e-01
0.045	   2.453475e-01  -2.507126e-01
0.045	   2.453475e-01  -2.507126e-01
0.05	   2.453477e-01  -2.507125e-01
0.05	   2.453477e-01  -2.507125e-01
0.055	   2.453478e-01  -2.507123e-01
0.055	   2.453478e-01  -2.507123e-01
0.06	   2.453480e-01  -2.507121e-01
0.06	   2.453480e-01  -2.507121e-01
0.065	   2.453483e-01  -2.507119e-01
0.065	   2.453483e-01  -2.507119e-01
0.07	   2.453485e-01  -2.507116e-01
0.07	   2.453485e-01  -2.507116e-01
0.075	   2.453488e-01  -2.507113e-01
0.075	   2.453488e-01  -2.507113e-01
0.08	   2.453491e-01  -2.507110e-01
0.08	   2.453491e-01  -2.507110e-01
0.085	   2.453494e-01  -2.507107e-01
0.085	   2.453494e-01  -2.507107e-01
0.09	   2.453498e-01  -2.507103e-01
0.09	   2.453498e-01  -2.507103e-01
0.09	   2.453498e-01  -2.507103e-01
0.095	   2.453502e-01  -2.507099e-01
0.095	   2.453502e-01  -2.507099e-01
0.095	   2.453502e-01  -2.507099e-01
0.1	   2.453506e-01  -2.507095e-01
0.1	   2.453506e-01  -2.507095e-01
0.1	   2.453506e-01  -2.507095e-01
0.105	   2.453511e-01  -2.507090e-01
0.105	   2.453511e-01  -2.507090e-01
0.105	   2.453511e-01  -2.507090e-01
0.11	   2.453516e-01  -2.507085e-01
0.11	   2.453516e-01  -2.507085e-01
0.115	   2.453522e-01  -2.507080e-01
0.115	   2.453522e-01  -2.507080e-01
0.12	   2.453527e-01  -2.507074e-01
0.12	   2.453527e-01  -2.507074e-01
0.125	   2.453534e-01  -2.507068e-01
0.125	   2.453534e-01  -2.507068e-01
0.13	   2.453541e-01  -2.507061e-01
0.13	   2.453541e-01  -2.507061e-01
0.135	   2.453548e-01  -2.507053e-01
0.135	   2.453548e-01  -2.507053e-01
0.14	   2.453556e-01  -2.507046e-01
0.14	   2.453556e-01  -2.507046e-01
0.145	   2.453564e-01  -2.507037e-01
0.145	   2.453564e-01  -2.507037e-01
0.15	   2.453573e-01  -2.507028e-01
0.15	   2.453573e-01  -2.507028e-01
0.155	   2.453583e-01  -2.507018e-01
0.155	   2.453583e-01  -2.507018e-01
0.16	   2.453593e-01  -2.507008e-01
0.16	   2.453593e-01  -2.507008e-01
0.165	   2.453604e-01  -2.506997e-01
0.165	   2.453604e-01  -2.506997e-01
0.17	   2.453616e-01  -2.506985e-01
0.17	   2.453616e-01  -2.506985e-01
0.175	   2.453629e-01  -2.506973e-01
0.175	   2.453629e-01  -2.506973e-01
0.18	   2.453642e-01  -2.506959e-01
0.18	   2.453642e-01  -2.506959e-01
0.185	   2.453656e-01  -2.506945e-01
0.185	   2.453656e-01  -2.506945e-01
0.19	   2.453671e-01  -2.506930e-01
0.19	   2.453671e-01  -2.506930e-01
0.195	   2.453687e-01  -2.506914e-01
0.195	   2.453687e-01  -2.506914e-01
0.195	   2.453687e-01  -2.506914e-01
0.2	   2.453705e-01  -2.506897e-01
0.2	   2.453705e-01  -2.506897e-01
0.205	   2.453723e-01  -2.506879e-01
0.205	   2.453723e-01  -2.506879e-01
0.205	   2.453723e-01  -2.506879e-01
0.21	   2.453742e-01  -2.506860e-01
0.21	   2.453742e-01  -2.506860e-01
0.21	   2.453742e-01  -2.506860e-01
0.215	   2.453762e-01  -2.506840e-01
0.215	   2.453762e-01  -2.506840e-01
0.22	   2.453783e-01  -2.506818e-01
0.22	   2.453783e-01  -2.506818e-01
0.22	   2.453783e-01  -2.506818e-01
0.225	   2.453806e-01  -2.506796e-01
0.225	   2.453806e-01  -2.506796e-01
0.23	   2.453830e-01  -2.506772e-01
0.23	   2.453830e-01  -2.506772e-01
0.235	   2.453855e-01  -2.506747e-01
0.235	   2.453855e-01  -2.506747e-01
0.24	   2.453882e-01  -2.506720e-01
0.24	   2.453882e-01  -2.506720e-01
0.245	   2.453910e-01  -2.506692e-01
0.245	   2.453910e-01  -2.506692e-01
0.25	   2.453939e-01  -2.506662e-01
0.25	   2.453939e-01  -2.506662e-01
0.255	   2.453970e-01  -2.506631e-01
0.255	   2.453970e-01  -2.506631e-01
0.26	   2.454003e-01  -2.506599e-01
0.26	   2.454003e-01  -2.506599e-01
0.265	   2.454037e-01  -2.506564e-01
0.265	   2.454037e-01  -2.506564e-01
0.27	   2.454073e-01  -2.506528e-01
0.27	   2.454073e-01  -2.506528e-01
0.275	   2.454111e-01  -2.506490e-01
0.275	   2.454111e-01  -2.506490e-01
0.28	   2.454151e-01  -2.506450e-01
0.28	   2.454151e-01  -2.506450e-01
0.285	   2.454193e-01  -2.506408e-01
0.285	   2.454193e-01  -2.506408e-01
0.29	   2.454237e-01  -2.506364e-01
0.29	   2.454237e-01  -2.506364e-01
0.295	   2.454283e-01  -2.506319e-01
0.295	   2.454283e-01  -2.506319e-01
0.295	   2.454283e-01  -2.506319e-01
0.3	   2.454331e-01  -2.506270e-01
0.3	   2.454331e-01  -2.506270e-01
0.305	   2.454382e-01  -2.506220e-01
0.305	   2.454382e-01  -2.506220e-01
0.31	   2.454434e-01  -2.506167e-01
0.31	   2.454434e-01  -2.506167e-01
0.31	   2.454434e-01  -2.506167e-01
0.315	   2.454489e-01  -2.506112e-01
0.315	   2.454489e-01  -2.506112e-01
0.32	   2.454547e-01  -2.506054e-01
0.32	   2.454547e-01  -2.506054e-01
0.325	   2.454607e-01  -2.505994e-01
0.325	   2.454607e-01  -2.505994e-01
0.33	   2.454670e-01  -2.505931e-01
0.33	   2.454670e-01  -2.505931e-01
0.335	   2.454736e-01  -2.505866e-01
0.335	   2.454736e-01  -2.505866e-01
0.34	   2.454804e-01  -2.505797e-01
0.34	   2.454804e-01  -2.505797e-01
0.345	   2.454876e-01  -2.505726e-01
0.345	   2.454876e-01  -2.505726e-01
0.35	   2.454950e-01  -2.505652e-01
0.35	   2.454950e-01  -2.505652e-01
0.355	   2.455027e-01  -2.505574e-01
0.355	   2.455027e-01  -2.505574e-01
0.36	   2.455108e-01  -2.505493e-01
0.36	   2.455108e-01  -2.505493e-01
0.365	   2.455192e-01  -2.505409e-01
0.365	   2.455192e-01  -2.505409e-01
0.37	   2.455279e-01  -2.505322e-01
0.37	   2.455279e-01  -2.505322e-01
0.375	   2.455370e-01  -2.505231e-01
0.375	   2.455370e-01  -2.505231e-01
0.38	   2.455465e-01  -2.505137e-01
0.38	   2.455465e-01  -2.505137e-01
0.385	   2.455563e-01  -2.505039e-01
0.385	   2.455563e-01  -2.505039e-01
0.39	   2.455665e-01  -2.504937e-01
0.39	   2.455665e-01  -2.504937e-01
0.395	   2.455770e-01  -2.504831e-01
0.395	   2.455770e-01  -2.504831e-01
0.4	   2.455880e-01  -2.504721e-01
0.4	   2.455880e-01  -2.504721e-01
0.405	   2.455994e-01  -2.504607e-01
0.405	   2.455994e-01  -2.504607e-01
0.41	   2.456112e-01  -2.504489e-01
0.41	   2.456112e-01  -2.504489e-01
0.415	   2.456234e-01  -2.504367e-01
0.415	   2.456234e-01  -2.504367e-01
0.42	   2.456361e-01  -2.504240e-01
0.42	   2.456361e-01  -2.504240e-01
0.425	   2.456493e-01  -2.504109e-01
0.425	   2.456493e-01  -2.504109e-01
0.43	   2.456628e-01  -2.503973e-01
0.43	   2.456628e-01  -2.503973e-01
0.435	   2.456769e-01  -2.503832e-01
0.435	   2.456769e-01  -2.503832e-01
0.44	   2.456914e-01  -2.503687e-01
0.44	   2.456914e-01  -2.503687e-01
0.445	   2.457065e-01  -2.503537e-01
0.445	   2.457065e-01  -2.503537e-01
0.45	   2.457220e-01  -2.503381e-01
0.45	   2.457220e-01  -2.503381e-01
0.455	   2.457381e-01  -2.503220e-01
0.455	   2.457381e-01  -2.503220e-01
0.46	   2.457547e-01  -2.503055e-01
0.46	   2.457547e-01  -2.503055e-01
0.465	   2.457718e-01  -2.502883e-01
0.465	   2.457718e-01  -2.502883e-01
0.47	   2.457895e-01  -2.502706e-01
0.47	   2.457895e-01  -2.502706e-01
0.475	   2.458077e-01  -2.502524e-01
0.475	   2.458077e-01  -2.502524e-01
0.48	   2.458266e-01  -2.502336e-01
0.48	   2.458266e-01  -2.502336e-01
0.485	   2.458460e-01  -2.502142e-01
0.485	   2.458460e-01  -2.502142e-01
0.49	   2.458659e-01  -2.501942e-01
0.49	   2.458659e-01  -2.501942e-01
0.495	   2.458865e-01  -2.501736e-01
0.495	   2.458865e-01  -2.501736e-01
0.5	   2.459077e-01  -2.501524e-01
0.5	   2.459077e-01  -2.501524e-01
0.505	   2.459296e-01  -2.501306e-01
0.505	   2.459296e-01  -2.501306e-01
0.51	   2.459521e-01  -2.501081e-01
0.51	   2.459521e-01  -2.501081e-01
0.515	   2.459752e-01  -2.500850e-01
0.515	   2.459752e-01  -2.500850e-01
0.52	   2.459989e-01  -2.500612e-01
0.52	   2.459989e-01  -2.500612e-01
0.525	   2.460234e-01  -2.500368e-01
0.525	   2.460234e-01  -2.500368e-01
0.53	   2.460485e-01  -2.500116e-01
0.53	   2.460485e-01  -2.500116e-01
0.535	   2.460743e-01  -2.499858e-01
0.535	   2.460743e-01  -2.499858e-01
0.54	   2.461008e-01  -2.499593e-01
0.54	   2.461008e-01  -2.499593e-01
0.545	   2.461280e-01  -2.499321e-01
0.545	   2.461280e-01  -2.499321e-01
0.55	   2.461560e-01  -2.499042e-01
0.55	   2.461560e-01  -2.499042e-01
0.555	   2.461846e-01  -2.498755e-01
0.555	   2.461846e-01  -2.498755e-01
0.56	   2.462140e-01  -2.498461e-01
0.56	   2.462140e-01  -2.498461e-01
0.565	   2.462442e-01  -2.498160e-01
0.565	   2.462442e-01  -2.498160e-01
0.57	   2.462751e-01  -2.497851e-01
0.57	   2.462751e-01  -2.497851e-01
0.575	   2.463067e-01  -2.497534e-01
0.575	   2.463067e-01  -2.497534e-01
0.58	   2.463391e-01  -2.497210e-01
0.58	   2.463391e-01  -2.497210e-01
0.585	   2.463723e-01  -2.496878e-01
0.585	   2.463723e-01  -2.496878e-01
0.59	   2.464063e-01  -2.496538e-01
0.59	   2.464063e-01  -2.496538e-01
0.595	   2.464411e-01  -2.496190e-01
0.595	   2.464411e-01  -2.496190e-01
0.6	   2.464767e-01  -2.495834e-01
0.6	   2.464767e-01  -2.495834e-01
0.605	   2.465131e-01  -2.495470e-01
0.605	   2.465131e-01  -2.495470e-01
0.61	   2.465503e-01  -2.495098e-01
0.61	   2.465503e-01  -2.495098e-01
0.615	   2.465884e-01  -2.494718e-01
0.615	   2.465884e-01  -2.494718e-01
0.62	   2.466272e-01  -2.494329e-01
0.62	   2.466272e-01  -2.494329e-01
0.625	   2.466669e-01  -2.493932e-01
0.625	   2.466669e-01  -2.493932e-01
0.63	   2.467075e-01  -2.493527e-01
0.63	   2.467075e-01  -2.493527e-01
0.635	   2.467489e-01  -2.493113e-01
0.635	   2.467489e-01  -2.493113e-01
0.64	   2.467911e-01  -2.492691e-01
0.64	   2.467911e-01  -2.492691e-01
0.645	   2.468342e-01  -2.492260e-01
0.645	   2.468342e-01  -2.492260e-01
0.65	   2.468781e-01  -2.491820e-01
0.65	   2.468781e-01  -2.491820e-01
0.655	   2.469230e-01  -2.491372e-01
0.655	   2.469230e-01  -2.491372e-01
0.66	   2.469686e-01  -2.490915e-01
0.66	   2.469686e-01  -2.490915e-01
0.665	   2.470152e-01  -2.490450e-01
0.665	   2.470152e-01  -2.490450e-01
0.67	   2.470626e-01  -2.489975e-01
0.67	   2.470626e-01  -2.489975e-01
0.675	   2.471109e-01  -2.489492e-01
0.675	   2.471109e-01  -2.489492e-01
0.68	   2.471601e-01  -2.489000e-01
0.68	   2.471601e-01  -2.489000e-01
0.685	   2.472102e-01  -2.488500e-01
0.685	   2.472102e-01  -2.488500e-01
0.69	   2.472611e-01  -2.487990e-01
0.69	   2.472611e-01  -2.487990e-01
0.695	   2.473129e-01  -2.487472e-01
0.695	   2.473129e-01  -2.487472e-01
0.7	   2.473657e-01  -2.486945e-01
0.7	   2.473657e-01  -2.486945e-01
0.705	   2.474192e-01  -2.486409e-01
0.705	   2.474192e-01  -2.486409e-01
0.71	   2.474737e-01  -2.485864e-01
0.71	   2.474737e-01  -2.485864e-01
0.715	   2.475291e-01  -2.485311e-01
0.715	   2.475291e-01  -2.485311e-01
0.72	   2.475853e-01  -2.484749e-01
0.72	   2.475853e-01  -2.484749e-01
0.725	   2.476424e-01  -2.484178e-01
0.725	   2.476424e-01  -2.484178e-01
0.73	   2.477004e-01  -2.483598e-01
0.73	   2.477004e-01  -2.483598e-01
0.735	   2.477592e-01  -2.483009e-01
0.735	   2.477592e-01  -2.483009e-01
0.74	   2.478190e-01  -2.482412e-01
0.74	   2.478190e-01  -2.482412e-01
0.745	   2.478795e-01  -2.481806e-01
0.745	   2.478795e-01  -2.481806e-01
0.75	   2.479410e-01  -2.481192e-01
0.75	   2.479410e-01  -2.481192e-01
0.755	   2.480033e-01  -2.480569e-01
0.755	   2.480033e-01  -2.480569e-01
0.76	   2.480664e-01  -2.479937e-01
0.76	   2.480664e-01  -2.479937e-01
0.765	   2.481304e-01  -2.479297e-01
0.765	   2.481304e-01  -2.479297e-01
0.77	   2.481953e-01  -2.478649e-01
0.77	   2.481953e-01  -2.478649e-01
0.775	   2.482610e-01  -2.477992e-01
0.775	   2.482610e-01  -2.477992e-01
0.78	   2.483275e-01  -2.477327e-01
0.78	   2.483275e-01  -2.477327e-01
0.785	   2.483948e-01  -2.476654e-01
0.785	   2.483948e-01  -2.476654e-01
0.79	   2.484629e-01  -2.475972e-01
0.79	   2.484629e-01  -2.475972e-01
0.795	   2.485318e-01  -2.475283e-01
0.795	   2.485318e-01  -2.475283e-01
0.8	   2.486016e-01  -2.474586e-01
0.8	   2.486016e-01  -2.474586e-01
0.805	   2.486721e-01  -2.473881e-01
0.805	   2.486721e-01  -2.473881e-01
0.81	   2.487434e-01  -2.473168e-01
0.81	   2.487434e-01  -2.473168e-01
0.815	   2.488155e-01  -2.472447e-01
0.815	   2.488155e-01  -2.472447e-01
0.82	   2.488883e-01  -2.471719e-01
0.82	   2.488883e-01  -2.471719e-01
0.825	   2.489619e-01  -2.470983e-01
0.825	   2.489619e-01  -2.470983e-01
0.83	   2.490362e-01  -2.470240e-01
0.83	   2.490362e-01  -2.470240e-01
0.835	   2.491112e-01  -2.469490e-01
0.835	   2.491112e-01  -2.469490e-01
0.84	   2.491869e-01  -2.468732e-01
0.84	   2.491869e-01  -2.468732e-01
0.845	   2.492634e-01  -2.467968e-01
0.845	   2.492634e-01  -2.467968e-01
0.85	   2.493405e-01  -2.467196e-01
0.85	   2.493405e-01  -2.467196e-01
0.855	   2.494183e-01  -2.466418e-01
0.855	   2.494183e-01  -2.466418e-01
0.86	   2.494968e-01  -2.465633e-01
0.86	   2.494968e-01  -2.465633e-01
0.865	   2.495760e-01  -2.464842e-01
0.865	   2.495760e-01  -2.464842e-01
0.87	   2.496557e-01  -2.464044e-01
0.87	   2.496557e-01  -2.464044e-01
0.875	   2.497361e-01  -2.463240e-01
0.875	   2.497361e-01  -2.463240e-01
0.88	   2.498171e-01  -2.462430e-01
0.88	   2.498171e-01  -2.462430e-01
0.885	   2.498987e-01  -2.461614e-01
0.885	   2.498987e-01  -2.461614e-01
0.89	   2.499809e-01  -2.460792e-01
0.89	   2.499809e-01  -2.460792e-01
0.895	   2.500637e-01  -2.459965e-01
0.895	   2.500637e-01  -2.459965e-01
0.9	   2.501469e-01  -2.459132e-01
0.9	   2.501469e-01  -2.459132e-01
0.905	   2.502308e-01  -2.458294e-01
0.905	   2.502308e-01  -2.458294e-01
0.91	   2.503151e-01  -2.457450e-01
0.91	   2.503151e-01  -2.457450e-01
0.915	   2.504000e-01  -2.456602e-01
0.915	   2.504000e-01  -2.456602e-01
0.92	   2.504853e-01  -2.455748e-01
0.92	   2.504853e-01  -2.455748e-01
0.925	   2.505712e-01  -2.454890e-01
0.925	   2.505712e-01  -2.454890e-01
0.93	   2.506578e-01  -2.454024e-01
0.93	   2.506578e-01  -2.454024e-01
0.935	   2.507442e-01  -2.453160e-01
0.935	   2.507442e-01  -2.453160e-01
0.94	   2.508313e-01  -2.452288e-01
0.94	   2.508313e-01  -2.452288e-01
0.945	   2.509189e-01  -2.451413e-01
0.945	   2.509189e-01  -2.451413e-01
0.95	   2.510068e-01  -2.450534e-01
0.95	   2.510068e-01  -2.450534e-01
0.955	   2.510951e-01  -2.449650e-01
0.955	   2.510951e-01  -2.449650e-01
0.96	   2.511838e-01  -2.448764e-01
0.96	   2.511838e-01  -2.448764e-01
0.965	   2.512728e-01  -2.447874e-01
0.965	   2.512728e-01  -2.447874e-01
0.97	   2.513621e-01  -2.446980e-01
0.97	   2.513621e-01  -2.446980e-01
0.975	   2.514518e-01  -2.446084e-01
0.975	   2.514518e-01  -2.446084e-01
0.98	   2.515417e-01  -2.445185e-01
0.98	   2.515417e-01  -2.445185e-01
0.985	   2.516319e-01  -2.444282e-01
0.985	   2.516319e-01  -2.444282e-01
0.99	   2.517224e-01  -2.443378e-01
0.99	   2.517224e-01  -2.443378e-01
0.995	   2.518131e-01  -2.442471e-01
0.995	   2.518131e-01  -2.442471e-01
1	   2.519040e-01  -2.441562e-01
1	   2.519040e-01  -2.441562e-01
1.005	   2.519951e-01  -2.440650e-01
1.005	   2.519951e-01  -2.440650e-01
1.01	   2.520865e-01  -2.439737e-01
1.01	   2.520865e-01  -2.439737e-01
1.015	   2.521780e-01  -2.438822e-01
1.015	   2.521780e-01  -2.438822e-01
1.02	   2.522697e-01  -2.437905e-01
1.02	   2.522697e-01  -2.437905e-01
1.025	   2.523616e-01  -2.436986e-01
1.025	   2.523616e-01  -2.436986e-01
1.03	   2.524535e-01  -2.436066e-01
1.03	   2.524535e-01  -2.436066e-01
1.035	   2.525457e-01  -2.435145e-01
1.035	   2.525457e-01  -2.435145e-01
1.04	   2.526379e-01  -2.434223e-01
1.04	   2.526379e-01  -2.434223e-01
1.045	   2.527302e-01  -2.433299e-01
1.045	   2.527302e-01  -2.433299e-01
1.05	   2.528226e-01  -2.432375e-01
1.05	   2.528226e-01  -2.432375e-01
1.055	   2.529151e-01  -2.431451e-01
1.055	   2.529151e-01  -2.431451e-01
1.06	   2.530076e-01  -2.430525e-01
1.06	   2.530076e-01  -2.430525e-01
1.065	   2.531002e-01  -2.429600e-01
1.065	   2.531002e-01  -2.429600e-01
1.07	   2.531928e-01  -2.428674e-01
1.07	   2.531928e-01  -2.428674e-01
1.075	   2.532854e-01  -2.427748e-01
1.075	   2.532854e-01  -2.427748e-01
1.08	   2.533780e-01  -2.426822e-01
1.08	   2.533780e-01  -2.426822e-01
1.085	   2.534705e-01  -2.425896e-01
1.085	   2.534705e-01  -2.425896e-01
1.09	   2.535631e-01  -2.424971e-01
1.09	   2.535631e-01  -2.424971e-01
1.095	   2.536556e-01  -2.424045e-01
1.095	   2.536556e-01  -2.424045e-01
1.1	   2.537481e-01  -2.423121e-01
1.1	   2.537481e-01  -2.423121e-01
1.105	   2.538405e-01  -2.422196e-01
1.105	   2.538405e-01  -2.422196e-01
1.11	   2.539329e-01  -2.421273e-01
1.11	   2.539329e-01  -2.421273e-01
1.115	   2.540251e-01  -2.420350e-01
1.115	   2.540251e-01  -2.420350e-01
1.12	   2.541173e-01  -2.419428e-01
1.12	   2.541173e-01  -2.419428e-01
1.125	   2.542094e-01  -2.418508e-01
1.125	   2.542094e-01  -2.418508e-01
1.13	   2.543014e-01  -2.417588e-01
1.13	   2.543014e-01  -2.417588e-01
1.135	   2.543932e-01  -2.416669e-01
1.135	   2.543932e-01  -2.416669e-01
1.14	   2.544850e-01  -2.415752e-01
1.14	   2.544850e-01  -2.415752e-01
1.145	   2.545766e-01  -2.414835e-01
1.145	   2.545766e-01  -2.414835e-01
1.15	   2.546681e-01  -2.413920e-01
1.15	   2.546681e-01  -2.413920e-01
1.155	   2.547595e-01  -2.413007e-01
1.155	   2.547595e-01  -2.413007e-01
1.16	   2.548507e-01  -2.412095e-01
1.16	   2.548507e-01  -2.412095e-01
1.165	   2.549418e-01  -2.411184e-01
1.165	   2.549418e-01  -2.411184e-01
1.17	   2.550327e-01  -2.410275e-01
1.17	   2.550327e-01  -2.410275e-01
1.175	   2.551234e-01  -2.409367e-01
1.175	   2.551234e-01  -2.409367e-01
1.18	   2.552141e-01  -2.408461e-01
1.18	   2.552141e-01  -2.408461e-01
1.185	   2.553045e-01  -2.407556e-01
1.185	   2.553045e-01  -2.407556e-01
1.19	   2.553948e-01  -2.406653e-01
1.19	   2.553948e-01  -2.406653e-01
1.195	   2.554849e-01  -2.405752e-01
1.195	   2.554849e-01  -2.405752e-01
1.2	   2.555749e-01  -2.404852e-01
1.2	   2.555749e-01  -2.404852e-01
1.205	   2.556647e-01  -2.403954e-01
1.205	   2.556647e-01  -2.403954e-01
1.21	   2.557544e-01  -2.403058e-01
1.21	   2.557544e-01  -2.403058e-01
1.215	   2.558439e-01  -2.402162e-01
1.215	   2.558439e-01  -2.402162e-01
1.22	   2.559333e-01  -2.401269e-01
1.22	   2.559333e-01  -2.401269e-01
1.225	   2.560225e-01  -2.400377e-01
1.225	   2.560225e-01  -2.400377e-01
1.23	   2.561115e-01  -2.399486e-01
1.23	   2.561115e-01  -2.399486e-01
1.235	   2.562004e-01  -2.398597e-01
1.235	   2.562004e-01  -2.398597e-01
1.24	   2.562892e-01  -2.397710e-01
1.24	   2.562892e-01  -2.397710e-01
1.245	   2.563778e-01  -2.396823e-01
1.245	   2.563778e-01  -2.396823e-01
1.25	   2.564663e-01  -2.395938e-01
1.25	   2.564663e-01  -2.395938e-01
1.255	   2.565547e-01  -2.395054e-01
1.255	   2.565547e-01  -2.395054e-01
1.26	   2.566430e-01  -2.394171e-01
1.26	   2.566430e-01  -2.394171e-01
1.265	   2.567312e-01  -2.393290e-01
1.265	   2.567312e-01  -2.393290e-01
1.27	   2.568193e-01  -2.392409e-01
1.27	   2.568193e-01  -2.392409e-01
1.275	   2.569073e-01  -2.391529e-01
1.275	   2.569073e-01  -2.391529e-01
1.28	   2.569952e-01  -2.390650e-01
1.28	   2.569952e-01  -2.390650e-01
1.285	   2.570821e-01  -2.389780e-01
1.285	   2.570821e-01  -2.389780e-01
1.29	   2.571708e-01  -2.388893e-01
1.29	   2.571708e-01  -2.388893e-01
1.295	   2.572586e-01  -2.388016e-01
1.295	   2.572586e-01  -2.388016e-01
1.3	   2.573463e-01  -2.387138e-01
1.3	   2.573463e-01  -2.387138e-01
1.305	   2.574340e-01  -2.386261e-01
1.305	   2.574340e-01  -2.386261e-01
1.31	   2.575217e-01  -2.385384e-01
1.31	   2.575217e-01  -2.385384e-01
1.315	   2.576094e-01  -2.384507e-01
1.315	   2.576094e-01  -2.384507e-01
1.32	   2.576971e-01  -2.383630e-01
1.32	   2.576971e-01  -2.383630e-01
1.325	   2.577849e-01  -2.382752e-01
1.325	   2.577849e-01  -2.382752e-01
1.33	   2.578727e-01  -2.381874e-01
1.33	   2.578727e-01  -2.381874e-01
1.335	   2.579606e-01  -2.380996e-01
1.335	   2.579606e-01  -2.380996e-01
1.34	   2.580485e-01  -2.380116e-01
1.34	   2.580485e-01  -2.380116e-01
1.345	   2.581366e-01  -2.379235e-01
1.345	   2.581366e-01  -2.379235e-01
1.35	   2.582248e-01  -2.378354e-01
1.35	   2.582248e-01  -2.378354e-01
1.355	   2.583131e-01  -2.377471e-01
1.355	   2.583131e-01  -2.377471e-01
1.36	   2.584015e-01  -2.376586e-01
1.36	   2.584015e-01  -2.376586e-01
1.365	   2.584902e-01  -2.375700e-01
1.365	   2.584902e-01  -2.375700e-01
1.37	   2.585790e-01  -2.374812e-01
1.37	   2.585790e-01  -2.374812e-01
1.375	   2.586680e-01  -2.373922e-01
1.375	   2.586680e-01  -2.373922e-01
1.38	   2.587572e-01  -2.373029e-01
1.38	   2.587572e-01  -2.373029e-01
1.385	   2.588467e-01  -2.372135e-01
1.385	   2.588467e-01  -2.372135e-01
1.39	   2.589364e-01  -2.371237e-01
1.39	   2.589364e-01  -2.371237e-01
1.395	   2.590265e-01  -2.370337e-01
1.395	   2.590265e-01  -2.370337e-01
1.4	   2.591168e-01  -2.369434e-01
1.4	   2.591168e-01  -2.369434e-01
1.405	   2.592074e-01  -2.368527e-01
1.405	   2.592074e-01  -2.368527e-01
1.41	   2.592984e-01  -2.367618e-01
1.41	   2.592984e-01  -2.367618e-01
1.415	   2.593897e-01  -2.366704e-01
1.415	   2.593897e-01  -2.366704e-01
1.42	   2.594815e-01  -2.365787e-01
1.42	   2.594815e-01  -2.365787e-01
1.425	   2.595736e-01  -2.364866e-01
1.43	   2.596661e-01  -2.363940e-01
1.435	   2.597591e-01  -2.363010e-01
1.44	   2.598526e-01  -2.362076e-01
1.445	   2.599465e-01  -2.361137e-01
1.45	   2.600409e-01  -2.360192e-01
1.455	   2.601359e-01  -2.359243e-01
1.46	   2.602314e-01  -2.358288e-01
1.465	   2.603274e-01  -2.357327e-01
1.47	   2.604241e-01  -2.356361e-01
1.475	   2.605213e-01  -2.355388e-01
1.48	   2.606192e-01  -2.354409e-01
1.485	   2.607178e-01  -2.353424e-01
1.49	   2.608169e-01  -2.352432e-01
1.495	   2.609168e-01  -2.351433e-01
1.5	   2.610174e-01  -2.350428e-01
1.505	   2.611187e-01  -2.349415e-01
1.51	   2.612207e-01  -2.348394e-01
1.515	   2.613235e-01  -2.347367e-01
1.52	   2.614271e-01  -2.346331e-01
1.525	   2.615314e-01  -2.345287e-01
1.53	   2.616366e-01  -2.344236e-01
1.535	   2.617425e-01  -2.343176e-01
1.54	   2.618494e-01  -2.342108e-01
1.545	   2.619570e-01  -2.341031e-01
1.55	   2.620656e-01  -2.339946e-01
1.555	   2.621750e-01  -2.338851e-01
1.56	   2.622854e-01  -2.337748e-01
1.565	   2.623966e-01  -2.336635e-01
1.57	   2.625088e-01  -2.335514e-01
1.575	   2.626219e-01  -2.334383e-01
1.58	   2.627359e-01  -2.333242e-01
1.585	   2.628510e-01  -2.332092e-01
1.59	   2.629670e-01  -2.330932e-01
1.595	   2.630839e-01  -2.329762e-01
1.6	   2.632019e-01  -2.328582e-01
1.605	   2.633209e-01  -2.327393e-01
1.61	   2.634409e-01  -2.326193e-01
1.615	   2.635619e-01  -2.324983e-01
1.62	   2.636839e-01  -2.323762e-01
1.625	   2.638069e-01  -2.322532e-01
1.63	   2.639310e-01  -2.321291e-01
1.635	   2.640561e-01  -2.320040e-01
1.64	   2.641823e-01  -2.318779e-01
1.645	   2.643094e-01  -2.317507e-01
1.65	   2.644376e-01  -2.316225e-01
1.655	   2.645668e-01  -2.314933e-01
1.66	   2.646971e-01  -2.313631e-01
1.665	   2.648284e-01  -2.312318e-01
1.67	   2.649607e-01  -2.310995e-01
1.675	   2.650940e-01  -2.309662e-01
1.68	   2.652283e-01  -2.308319e-01
1.685	   2.653636e-01  -2.306966e-01
1.69	   2.654999e-01  -2.305602e-01
1.695	   2.656372e-01  -2.304229e-01
1.7	   2.657755e-01  -2.302847e-01
1.705	   2.659147e-01  -2.301454e-01
1.71	   2.660549e-01  -2.300052e-01
1.715	   2.661961e-01  -2.298641e-01
1.72	   2.663381e-01  -2.297220e-01
1.725	   2.664811e-01  -2.295790e-01
1.73	   2.666250e-01  -2.294351e-01
1.735	   2.667698e-01  -2.292903e-01
1.74	   2.669157e-01  -2.291445e-01
1.745	   2.670620e-01  -2.289982e-01
1.75	   2.672093e-01  -2.288508e-01
1.755	   2.673575e-01  -2.287027e-01
1.76	   2.675065e-01  -2.285537e-01
1.765	   2.676562e-01  -2.284039e-01
1.77	   2.678067e-01  -2.282534e-01
1.775	   2.679580e-01  -2.281022e-01
1.78	   2.681099e-01  -2.279502e-01
1.785	   2.682626e-01  -2.277975e-01
1.79	   2.684159e-01  -2.276442e-01
1.795	   2.685699e-01  -2.274902e-01
1.8	   2.687245e-01  -2.273356e-01
1.805	   2.688798e-01  -2.271804e-01
1.81	   2.690355e-01  -2.270246e-01
1.815	   2.691919e-01  -2.268683e-01
1.82	   2.693488e-01  -2.267114e-01
1.825	   2.695061e-01  -2.265540e-01
1.83	   2.696640e-01  -2.263962e-01
1.835	   2.698223e-01  -2.262379e-01
1.84	   2.699810e-01  -2.260792e-01
1.845	   2.701401e-01  -2.259200e-01
1.85	   2.702996e-01  -2.257606e-01
1.855	   2.704594e-01  -2.256008e-01
1.86	   2.706195e-01  -2.254406e-01
1.865	   2.707799e-01  -2.252802e-01
1.87	   2.709406e-01  -2.251195e-01
1.875	   2.711015e-01  -2.249587e-01
1.88	   2.712626e-01  -2.247976e-01
1.885	   2.714239e-01  -2.246363e-01
1.89	   2.715853e-01  -2.244749e-01
1.895	   2.717468e-01  -2.243133e-01
1.9	   2.719085e-01  -2.241517e-01
1.905	   2.720701e-01  -2.239900e-01
1.91	   2.722319e-01  -2.238283e-01
1.915	   2.723936e-01  -2.236665e-01
1.92	   2.725553e-01  -2.235048e-01
1.925	   2.727170e-01  -2.233431e-01
1.93	   2.728786e-01  -2.231815e-01
1.935	   2.730402e-01  -2.230200e-01
1.94	   2.732016e-01  -2.228586e-01
1.945	   2.733629e-01  -2.226973e-01
1.95	   2.735240e-01  -2.225362e-01
1.955	   2.736849e-01  -2.223753e-01
1.96	   2.738456e-01  -2.222145e-01
1.965	   2.740061e-01  -2.220541e-01
1.97	   2.741663e-01  -2.218938e-01
1.975	   2.743263e-01  -2.217339e-01
1.98	   2.744859e-01  -2.215742e-01
1.985	   2.746453e-01  -2.214148e-01
1.99	   2.748043e-01  -2.212558e-01
1.995	   2.749630e-01  -2.210971e-01
2	   2.751213e-01  -2.209388e-01
2.005	   2.752792e-01  -2.207809e-01
2.01	   2.754367e-01  -2.206234e-01
2.015	   2.755938e-01  -2.204664e-01
2.02	   2.757503e-01  -2.203098e-01
2.025	   2.759064e-01  -2.201537e-01
2.03	   2.760620e-01  -2.199981e-01
2.035	   2.762172e-01  -2.198430e-01
2.04	   2.763718e-01  -2.196884e-01
2.045	   2.765258e-01  -2.195343e-01
2.05	   2.766794e-01  -2.193808e-01
2.055	   2.768324e-01  -2.192278e-01
2.06	   2.769848e-01  -2.190753e-01
2.065	   2.771367e-01  -2.189234e-01
2.07	   2.772880e-01  -2.187721e-01
2.075	   2.774388e-01  -2.186214e-01
2.08	   2.775890e-01  -2.184712e-01
2.085	   2.777386e-01  -2.183216e-01
2.09	   2.778876e-01  -2.181726e-01
2.095	   2.780360e-01  -2.180242e-01
2.1	   2.781838e-01  -2.178764e-01
2.105	   2.783310e-01  -2.177292e-01
2.11	   2.784776e-01  -2.175826e-01
2.115	   2.786236e-01  -2.174366e-01
2.12	   2.787690e-01  -2.172912e-01
2.125	   2.789137e-01  -2.171464e-01
2.13	   2.790579e-01  -2.170022e-01
2.13	   2.790579e-01  -2.170022e-01
2.135	   2.792015e-01  -2.168586e-01
2.135	   2.792015e-01  -2.168586e-01
2.14	   2.793445e-01  -2.167157e-01
2.14	   2.793445e-01  -2.167157e-01
2.145	   2.794869e-01  -2.165733e-01
2.145	   2.794869e-01  -2.165733e-01
2.15	   2.796286e-01  -2.164315e-01
2.15	   2.796286e-01  -2.164315e-01
2.155	   2.797698e-01  -2.162903e-01
2.155	   2.797698e-01  -2.162903e-01
2.16	   2.799104e-01  -2.161498e-01
2.16	   2.799104e-01  -2.161498e-01
2.165	   2.800504e-01  -2.160098e-01
2.165	   2.800504e-01  -2.160098e-01
2.17	   2.801898e-01  -2.158704e-01
2.17	   2.801898e-01  -2.158704e-01
2.175	   2.803286e-01  -2.157315e-01
2.175	   2.803286e-01  -2.157315e-01
2.18	   2.804668e-01  -2.155933e-01
2.18	   2.804668e-01  -2.155933e-01
2.185	   2.806045e-01  -2.154557e-01
2.185	   2.806045e-01  -2.154557e-01
2.19	   2.807416e-01  -2.153186e-01
2.19	   2.807416e-01  -2.153186e-01
2.195	   2.808781e-01  -2.151821e-01
2.195	   2.808781e-01  -2.151821e-01
2.2	   2.810140e-01  -2.150461e-01
2.2	   2.810140e-01  -2.150461e-01
2.205	   2.811494e-01  -2.149107e-01
2.205	   2.811494e-01  -2.149107e-01
2.21	   2.812843e-01  -2.147759e-01
2.21	   2.812843e-01  -2.147759e-01
2.215	   2.814185e-01  -2.146416e-01
2.215	   2.814185e-01  -2.146416e-01
2.22	   2.815523e-01  -2.145079e-01
2.22	   2.815523e-01  -2.145079e-01
2.225	   2.816855e-01  -2.143747e-01
2.225	   2.816855e-01  -2.143747e-01
2.23	   2.818181e-01  -2.142420e-01
2.23	   2.818181e-01  -2.142420e-01
2.235	   2.819502e-01  -2.141100e-01
2.235	   2.819502e-01  -2.141100e-01
2.24	   2.820817e-01  -2.139784e-01
2.24	   2.820817e-01  -2.139784e-01
2.245	   2.822127e-01  -2.138474e-01
2.245	   2.822127e-01  -2.138474e-01
2.25	   2.823432e-01  -2.137169e-01
2.25	   2.823432e-01  -2.137169e-01
2.255	   2.824731e-01  -2.135870e-01
2.255	   2.824731e-01  -2.135870e-01
2.26	   2.826025e-01  -2.134577e-01
2.26	   2.826025e-01  -2.134577e-01
2.265	   2.827313e-01  -2.133288e-01
2.265	   2.827313e-01  -2.133288e-01
2.27	   2.828596e-01  -2.132005e-01
2.27	   2.828596e-01  -2.132005e-01
2.275	   2.829873e-01  -2.130728e-01
2.275	   2.829873e-01  -2.130728e-01
2.28	   2.831145e-01  -2.129456e-01
2.28	   2.831145e-01  -2.129456e-01
2.285	   2.832411e-01  -2.128190e-01
2.285	   2.832411e-01  -2.128190e-01
2.29	   2.833672e-01  -2.126929e-01
2.29	   2.833672e-01  -2.126929e-01
2.295	   2.834927e-01  -2.125674e-01
2.295	   2.834927e-01  -2.125674e-01
2.3	   2.836176e-01  -2.124425e-01
2.3	   2.836176e-01  -2.124425e-01
2.305	   2.837420e-01  -2.123182e-01
2.305	   2.837420e-01  -2.123182e-01
2.31	   2.838658e-01  -2.121944e-01
2.31	   2.838658e-01  -2.121944e-01
2.315	   2.839890e-01  -2.120712e-01
2.315	   2.839890e-01  -2.120712e-01
2.32	   2.841116e-01  -2.119486e-01
2.32	   2.841116e-01  -2.119486e-01
2.325	   2.842336e-01  -2.118266e-01
2.325	   2.842336e-01  -2.118266e-01
2.33	   2.843550e-01  -2.117052e-01
2.33	   2.843550e-01  -2.117052e-01
2.335	   2.844757e-01  -2.115844e-01
2.335	   2.844757e-01  -2.115844e-01
2.34	   2.845959e-01  -2.114643e-01
2.345	   2.847154e-01  -2.113448e-01
2.35	   2.848342e-01  -2.112259e-01
2.355	   2.849524e-01  -2.111077e-01
2.36	   2.850699e-01  -2.109902e-01
2.365	   2.851867e-01  -2.108734e-01
2.37	   2.853029e-01  -2.107573e-01
2.375	   2.854183e-01  -2.106419e-01
2.38	   2.855329e-01  -2.105272e-01
2.385	   2.856468e-01  -2.104133e-01
2.39	   2.857600e-01  -2.103002e-01
2.395	   2.858723e-01  -2.101878e-01
2.4	   2.859839e-01  -2.100762e-01
2.405	   2.860947e-01  -2.099655e-01
2.41	   2.862046e-01  -2.098556e-01
2.415	   2.863136e-01  -2.097465e-01
2.42	   2.864218e-01  -2.096384e-01
2.425	   2.865291e-01  -2.095311e-01