# Force       
# CofR        : 1.500000e+00 1.187560e-10 2.250000e-01
#
# Time        	total_x total_y total_z	pressure_x pressure_y pressure_z	viscous_x viscous_y viscous_z
0             	7.135863e-05 1.283275e-05 -5.554702e-01	7.135863e-05 1.283275e-05 -5.554702e-01	0.000000e+00 0.000000e+00 0.000000e+00
0             	7.135863e-05 1.283275e-05 -5.554702e-01	7.135863e-05 1.283275e-05 -5.554702e-01	0.000000e+00 0.000000e+00 0.000000e+00
0.005         	-1.143549e-05 -3.026830e-05 -7.729605e-01	-1.262620e-05 -3.027481e-05 -7.729226e-01	1.190707e-06 6.511957e-09 -3.791285e-05
0.005         	-1.143549e-05 -3.026830e-05 -7.729605e-01	-1.262620e-05 -3.027481e-05 -7.729226e-01	1.190707e-06 6.511957e-09 -3.791285e-05
0.01          	-4.941743e-05 1.035806e-04 -7.720253e-01	-4.353119e-05 1.038246e-04 -7.734845e-01	-5.886243e-06 -2.440012e-07 1.459227e-03
0.01          	-4.941743e-05 1.035806e-04 -7.720253e-01	-4.353119e-05 1.038246e-04 -7.734845e-01	-5.886243e-06 -2.440012e-07 1.459227e-03
0.015         	-2.599302e-05 -3.367850e-04 -7.757435e-01	-7.656774e-05 -3.345200e-04 -7.741158e-01	5.057471e-05 -2.264982e-06 -1.627653e-03
0.015         	-2.599302e-05 -3.367850e-04 -7.757435e-01	-7.656774e-05 -3.345200e-04 -7.741158e-01	5.057471e-05 -2.264982e-06 -1.627653e-03
0.02          	1.688432e-04 3.202694e-05 -7.751496e-01	1.238899e-04 2.695242e-05 -7.726684e-01	4.495330e-05 5.074520e-06 -2.481184e-03
0.02          	1.688432e-04 3.202694e-05 -7.751496e-01	1.238899e-04 2.695242e-05 -7.726684e-01	4.495330e-05 5.074520e-06 -2.481184e-03
0.025         	1.885064e-04 -1.972077e-04 -7.746836e-01	1.233921e-04 -2.046154e-04 -7.731204e-01	6.511432e-05 7.407689e-06 -1.563154e-03
0.025         	1.885064e-04 -1.972077e-04 -7.746836e-01	1.233921e-04 -2.046154e-04 -7.731204e-01	6.511432e-05 7.407689e-06 -1.563154e-03
0.03          	-1.674956e-04 2.357357e-04 -7.745782e-01	-2.050884e-04 2.134977e-04 -7.734212e-01	3.759280e-05 2.223794e-05 -1.157008e-03
0.03          	-1.674956e-04 2.357357e-04 -7.745782e-01	-2.050884e-04 2.134977e-04 -7.734212e-01	3.759280e-05 2.223794e-05 -1.157008e-03
0.035         	1.071325e-05 -9.270245e-05 -7.755064e-01	5.322778e-06 -1.205949e-04 -7.728500e-01	5.390471e-06 2.789241e-05 -2.656390e-03
0.035         	1.071325e-05 -9.270245e-05 -7.755064e-01	5.322778e-06 -1.205949e-04 -7.728500e-01	5.390471e-06 2.789241e-05 -2.656390e-03
0.04          	7.723066e-05 -1.204420e-04 -7.763965e-01	4.753743e-05 -1.410935e-04 -7.729994e-01	2.969323e-05 2.065152e-05 -3.397101e-03
0.04          	7.723066e-05 -1.204420e-04 -7.763965e-01	4.753743e-05 -1.410935e-04 -7.729994e-01	2.969323e-05 2.065152e-05 -3.397101e-03
0.045         	1.739504e-04 -2.655408e-05 -7.762014e-01	1.291900e-04 -1.677978e-05 -7.731616e-01	4.476045e-05 -9.774300e-06 -3.039805e-03
0.045         	1.739504e-04 -2.655408e-05 -7.762014e-01	1.291900e-04 -1.677978e-05 -7.731616e-01	4.476045e-05 -9.774300e-06 -3.039805e-03
0.05          	-2.313712e-04 -2.692248e-05 -7.748774e-01	-2.878133e-04 -1.280169e-05 -7.735319e-01	5.644215e-05 -1.412079e-05 -1.345517e-03
0.05          	-2.313712e-04 -2.692248e-05 -7.748774e-01	-2.878133e-04 -1.280169e-05 -7.735319e-01	5.644215e-05 -1.412079e-05 -1.345517e-03
0.055         	2.076409e-05 4.203649e-04 -7.759920e-01	-4.111311e-05 3.986302e-04 -7.729047e-01	6.187720e-05 2.173476e-05 -3.087302e-03
0.055         	2.076409e-05 4.203649e-04 -7.759920e-01	-4.111311e-05 3.986302e-04 -7.729047e-01	6.187720e-05 2.173476e-05 -3.087302e-03
0.06          	3.405575e-04 -6.486475e-04 -7.763727e-01	2.561141e-04 -6.571342e-04 -7.731531e-01	8.444343e-05 8.486609e-06 -3.219625e-03
0.06          	3.405575e-04 -6.486475e-04 -7.763727e-01	2.561141e-04 -6.571342e-04 -7.731531e-01	8.444343e-05 8.486609e-06 -3.219625e-03
0.065         	1.327948e-04 2.671570e-04 -7.761806e-01	4.565482e-05 2.468484e-04 -7.732149e-01	8.713999e-05 2.030858e-05 -2.965644e-03
0.065         	1.327948e-04 2.671570e-04 -7.761806e-01	4.565482e-05 2.468484e-04 -7.732149e-01	8.713999e-05 2.030858e-05 -2.965644e-03
0.07          	8.346879e-05 -4.650009e-04 -7.750965e-01	8.868750e-06 -4.288234e-04 -7.735250e-01	7.460004e-05 -3.617749e-05 -1.571532e-03
0.07          	8.346879e-05 -4.650009e-04 -7.750965e-01	8.868750e-06 -4.288234e-04 -7.735250e-01	7.460004e-05 -3.617749e-05 -1.571532e-03
0.075         	-5.759729e-05 6.127121e-04 -7.755612e-01	-1.422827e-04 6.151276e-04 -7.730164e-01	8.468543e-05 -2.415525e-06 -2.544783e-03
0.075         	-5.759729e-05 6.127121e-04 -7.755612e-01	-1.422827e-04 6.151276e-04 -7.730164e-01	8.468543e-05 -2.415525e-06 -2.544783e-03
0.08          	4.377022e-04 -6.308267e-04 -7.759697e-01	3.254766e-04 -6.167869e-04 -7.731786e-01	1.122256e-04 -1.403976e-05 -2.791039e-03
0.08          	4.377022e-04 -6.308267e-04 -7.759697e-01	3.254766e-04 -6.167869e-04 -7.731786e-01	1.122256e-04 -1.403976e-05 -2.791039e-03
0.085         	3.158187e-04 -3.025141e-04 -7.759587e-01	1.950770e-04 -2.902716e-04 -7.732682e-01	1.207416e-04 -1.224250e-05 -2.690508e-03
0.085         	3.158187e-04 -3.025141e-04 -7.759587e-01	1.950770e-04 -2.902716e-04 -7.732682e-01	1.207416e-04 -1.224250e-05 -2.690508e-03
0.09          	2.844953e-04 -1.500109e-04 -7.748558e-01	1.510755e-04 -7.575344e-05 -7.736018e-01	1.334198e-04 -7.425744e-05 -1.254039e-03
0.09          	2.844953e-04 -1.500109e-04 -7.748558e-01	1.510755e-04 -7.575344e-05 -7.736018e-01	1.334198e-04 -7.425744e-05 -1.254039e-03
0.09          	2.844953e-04 -1.500109e-04 -7.748558e-01	1.510755e-04 -7.575344e-05 -7.736018e-01	1.334198e-04 -7.425744e-05 -1.254039e-03
0.095         	-2.820129e-05 4.290184e-04 -7.752688e-01	-1.438058e-04 4.459034e-04 -7.730449e-01	1.156045e-04 -1.688495e-05 -2.223899e-03
0.095         	-2.820129e-05 4.290184e-04 -7.752688e-01	-1.438058e-04 4.459034e-04 -7.730449e-01	1.156045e-04 -1.688495e-05 -2.223899e-03
0.095         	-2.820129e-05 4.290184e-04 -7.752688e-01	-1.438058e-04 4.459034e-04 -7.730449e-01	1.156045e-04 -1.688495e-05 -2.223899e-03
0.1           	3.071341e-04 -2.152351e-04 -7.758189e-01	1.864421e-04 -2.065077e-04 -7.732450e-01	1.206920e-04 -8.727371e-06 -2.573877e-03
0.1           	3.071341e-04 -2.152351e-04 -7.758189e-01	1.864421e-04 -2.065077e-04 -7.732450e-01	1.206920e-04 -8.727371e-06 -2.573877e-03
0.1           	3.071341e-04 -2.152351e-04 -7.758189e-01	1.864421e-04 -2.065077e-04 -7.732450e-01	1.206920e-04 -8.727371e-06 -2.573877e-03
0.105         	5.150723e-04 -6.859883e-04 -7.753697e-01	3.576009e-04 -6.581421e-04 -7.733407e-01	1.574714e-04 -2.784615e-05 -2.028988e-03
0.105         	5.150723e-04 -6.859883e-04 -7.753697e-01	3.576009e-04 -6.581421e-04 -7.733407e-01	1.574714e-04 -2.784615e-05 -2.028988e-03
0.105         	5.150723e-04 -6.859883e-04 -7.753697e-01	3.576009e-04 -6.581421e-04 -7.733407e-01	1.574714e-04 -2.784615e-05 -2.028988e-03
0.11          	-8.068828e-06 -6.303187e-05 -7.745690e-01	-1.928304e-04 -3.613547e-05 -7.736729e-01	1.847616e-04 -2.689639e-05 -8.960458e-04
0.11          	-8.068828e-06 -6.303187e-05 -7.745690e-01	-1.928304e-04 -3.613547e-05 -7.736729e-01	1.847616e-04 -2.689639e-05 -8.960458e-04
0.115         	4.747663e-04 4.885741e-04 -7.746012e-01	2.735382e-04 5.051077e-04 -7.731743e-01	2.012280e-04 -1.653362e-05 -1.426862e-03
0.115         	4.747663e-04 4.885741e-04 -7.746012e-01	2.735382e-04 5.051077e-04 -7.731743e-01	2.012280e-04 -1.653362e-05 -1.426862e-03
0.12          	1.357830e-04 4.737819e-04 -7.751363e-01	-7.645054e-05 4.557944e-04 -7.732754e-01	2.122336e-04 1.798753e-05 -1.860969e-03
0.12          	1.357830e-04 4.737819e-04 -7.751363e-01	-7.645054e-05 4.557944e-04 -7.732754e-01	2.122336e-04 1.798753e-05 -1.860969e-03
0.125         	9.375977e-04 -1.040916e-04 -7.750793e-01	6.958199e-04 -1.068833e-04 -7.732541e-01	2.417778e-04 2.791705e-06 -1.825165e-03
0.125         	9.375977e-04 -1.040916e-04 -7.750793e-01	6.958199e-04 -1.068833e-04 -7.732541e-01	2.417778e-04 2.791705e-06 -1.825165e-03
0.13          	1.825328e-04 -4.279441e-04 -7.745063e-01	-1.243250e-04 -3.802261e-04 -7.736942e-01	3.068578e-04 -4.771799e-05 -8.121539e-04
0.13          	1.825328e-04 -4.279441e-04 -7.745063e-01	-1.243250e-04 -3.802261e-04 -7.736942e-01	3.068578e-04 -4.771799e-05 -8.121539e-04
0.135         	5.820911e-04 -3.805037e-04 -7.746977e-01	2.962584e-04 -3.541958e-04 -7.731472e-01	2.858327e-04 -2.630786e-05 -1.550516e-03
0.135         	5.820911e-04 -3.805037e-04 -7.746977e-01	2.962584e-04 -3.541958e-04 -7.731472e-01	2.858327e-04 -2.630786e-05 -1.550516e-03
0.14          	4.651116e-04 -9.920598e-05 -7.749829e-01	1.412029e-04 -2.226545e-05 -7.732692e-01	3.239087e-04 -7.694053e-05 -1.713743e-03
0.14          	4.651116e-04 -9.920598e-05 -7.749829e-01	1.412029e-04 -2.226545e-05 -7.732692e-01	3.239087e-04 -7.694053e-05 -1.713743e-03
0.145         	7.451036e-04 -4.903802e-04 -7.748896e-01	4.050181e-04 -4.358686e-04 -7.732320e-01	3.400855e-04 -5.451162e-05 -1.657620e-03
0.145         	7.451036e-04 -4.903802e-04 -7.748896e-01	4.050181e-04 -4.358686e-04 -7.732320e-01	3.400855e-04 -5.451162e-05 -1.657620e-03
0.15          	4.272707e-04 -4.517208e-04 -7.743357e-01	6.724712e-05 -3.473970e-04 -7.735679e-01	3.600236e-04 -1.043237e-04 -7.677694e-04
0.15          	4.272707e-04 -4.517208e-04 -7.743357e-01	6.724712e-05 -3.473970e-04 -7.735679e-01	3.600236e-04 -1.043237e-04 -7.677694e-04
0.155         	9.924559e-04 -3.879527e-04 -7.742975e-01	6.675254e-04 -3.019555e-04 -7.732091e-01	3.249305e-04 -8.599719e-05 -1.088379e-03
0.155         	9.924559e-04 -3.879527e-04 -7.742975e-01	6.675254e-04 -3.019555e-04 -7.732091e-01	3.249305e-04 -8.599719e-05 -1.088379e-03
0.16          	2.577230e-04 5.157012e-05 -7.744272e-01	-1.041299e-04 1.198394e-04 -7.732567e-01	3.618530e-04 -6.826930e-05 -1.170454e-03
0.16          	2.577230e-04 5.157012e-05 -7.744272e-01	-1.041299e-04 1.198394e-04 -7.732567e-01	3.618530e-04 -6.826930e-05 -1.170454e-03
0.165         	1.008601e-03 -2.560530e-05 -7.744342e-01	6.289170e-04 2.349841e-05 -7.732265e-01	3.796835e-04 -4.910370e-05 -1.207721e-03
0.165         	1.008601e-03 -2.560530e-05 -7.744342e-01	6.289170e-04 2.349841e-05 -7.732265e-01	3.796835e-04 -4.910370e-05 -1.207721e-03
0.17          	4.353339e-04 -2.470026e-04 -7.737268e-01	6.610552e-05 -1.760592e-04 -7.736292e-01	3.692284e-04 -7.094333e-05 -9.758888e-05
0.17          	4.353339e-04 -2.470026e-04 -7.737268e-01	6.610552e-05 -1.760592e-04 -7.736292e-01	3.692284e-04 -7.094333e-05 -9.758888e-05
0.175         	1.024423e-03 -1.010549e-04 -7.734171e-01	6.744559e-04 -4.215414e-05 -7.732709e-01	3.499670e-04 -5.890077e-05 -1.461966e-04
0.175         	1.024423e-03 -1.010549e-04 -7.734171e-01	6.744559e-04 -4.215414e-05 -7.732709e-01	3.499670e-04 -5.890077e-05 -1.461966e-04
0.18          	4.989378e-04 5.920141e-04 -7.739234e-01	1.110614e-04 5.887049e-04 -7.732345e-01	3.878765e-04 3.309233e-06 -6.888867e-04
0.18          	4.989378e-04 5.920141e-04 -7.739234e-01	1.110614e-04 5.887049e-04 -7.732345e-01	3.878765e-04 3.309233e-06 -6.888867e-04
0.185         	8.785270e-04 -2.031533e-04 -7.740935e-01	4.816628e-04 -1.728762e-04 -7.732039e-01	3.968642e-04 -3.027707e-05 -8.896317e-04
0.185         	8.785270e-04 -2.031533e-04 -7.740935e-01	4.816628e-04 -1.728762e-04 -7.732039e-01	3.968642e-04 -3.027707e-05 -8.896317e-04
0.19          	6.617521e-04 2.853737e-04 -7.733285e-01	2.443200e-04 3.142257e-04 -7.736836e-01	4.174321e-04 -2.885197e-05 3.551364e-04
0.19          	6.617521e-04 2.853737e-04 -7.733285e-01	2.443200e-04 3.142257e-04 -7.736836e-01	4.174321e-04 -2.885197e-05 3.551364e-04
0.195         	1.101810e-03 -1.138692e-03 -7.734450e-01	7.275377e-04 -1.096593e-03 -7.732547e-01	3.742719e-04 -4.209858e-05 -1.903038e-04
0.195         	1.101810e-03 -1.138692e-03 -7.734450e-01	7.275377e-04 -1.096593e-03 -7.732547e-01	3.742719e-04 -4.209858e-05 -1.903038e-04
0.195         	1.101810e-03 -1.138692e-03 -7.734450e-01	7.275377e-04 -1.096593e-03 -7.732547e-01	3.742719e-04 -4.209858e-05 -1.903038e-04
0.2           	9.337005e-04 4.841793e-04 -7.740139e-01	5.252942e-04 4.945907e-04 -7.732149e-01	4.084063e-04 -1.041136e-05 -7.990690e-04
0.2           	9.337005e-04 4.841793e-04 -7.740139e-01	5.252942e-04 4.945907e-04 -7.732149e-01	4.084063e-04 -1.041136e-05 -7.990690e-04
0.205         	1.001378e-03 -2.386133e-04 -7.741120e-01	5.902374e-04 -1.943757e-04 -7.732519e-01	4.111404e-04 -4.423764e-05 -8.600372e-04
0.205         	1.001378e-03 -2.386133e-04 -7.741120e-01	5.902374e-04 -1.943757e-04 -7.732519e-01	4.111404e-04 -4.423764e-05 -8.600372e-04
0.205         	1.001378e-03 -2.386133e-04 -7.741120e-01	5.902374e-04 -1.943757e-04 -7.732519e-01	4.111404e-04 -4.423764e-05 -8.600372e-04
0.21          	7.794798e-04 3.653084e-04 -7.733483e-01	3.369241e-04 4.101251e-04 -7.736883e-01	4.425557e-04 -4.481672e-05 3.399829e-04
0.21          	7.794798e-04 3.653084e-04 -7.733483e-01	3.369241e-04 4.101251e-04 -7.736883e-01	4.425557e-04 -4.481672e-05 3.399829e-04
0.21          	7.794798e-04 3.653084e-04 -7.733483e-01	3.369241e-04 4.101251e-04 -7.736883e-01	4.425557e-04 -4.481672e-05 3.399829e-04
0.215         	1.485930e-03 -1.361241e-04 -7.734618e-01	1.084110e-03 -1.041967e-04 -7.732437e-01	4.018196e-04 -3.192739e-05 -2.181319e-04
0.215         	1.485930e-03 -1.361241e-04 -7.734618e-01	1.084110e-03 -1.041967e-04 -7.732437e-01	4.018196e-04 -3.192739e-05 -2.181319e-04
0.22          	8.166700e-04 1.311139e-04 -7.739639e-01	3.705084e-04 1.710624e-04 -7.732333e-01	4.461616e-04 -3.994852e-05 -7.306313e-04
0.22          	8.166700e-04 1.311139e-04 -7.739639e-01	3.705084e-04 1.710624e-04 -7.732333e-01	4.461616e-04 -3.994852e-05 -7.306313e-04
0.22          	8.166700e-04 1.311139e-04 -7.739639e-01	3.705084e-04 1.710624e-04 -7.732333e-01	4.461616e-04 -3.994852e-05 -7.306313e-04
0.225         	8.947898e-04 -3.638651e-04 -7.739196e-01	4.334509e-04 -3.284319e-04 -7.733030e-01	4.613389e-04 -3.543313e-05 -6.166181e-04
0.225         	8.947898e-04 -3.638651e-04 -7.739196e-01	4.334509e-04 -3.284319e-04 -7.733030e-01	4.613389e-04 -3.543313e-05 -6.166181e-04
0.23          	9.392911e-04 4.682324e-04 -7.732438e-01	4.661562e-04 5.109718e-04 -7.736710e-01	4.731350e-04 -4.273941e-05 4.272775e-04
0.23          	9.392911e-04 4.682324e-04 -7.732438e-01	4.661562e-04 5.109718e-04 -7.736710e-01	4.731350e-04 -4.273941e-05 4.272775e-04
0.235         	1.700496e-03 2.195884e-05 -7.734117e-01	1.239537e-03 6.511099e-05 -7.732821e-01	4.609582e-04 -4.315214e-05 -1.296454e-04
0.235         	1.700496e-03 2.195884e-05 -7.734117e-01	1.239537e-03 6.511099e-05 -7.732821e-01	4.609582e-04 -4.315214e-05 -1.296454e-04
0.24          	1.130054e-03 -2.352810e-04 -7.735785e-01	6.485054e-04 -2.080799e-04 -7.732837e-01	4.815487e-04 -2.720105e-05 -2.947617e-04
0.24          	1.130054e-03 -2.352810e-04 -7.735785e-01	6.485054e-04 -2.080799e-04 -7.732837e-01	4.815487e-04 -2.720105e-05 -2.947617e-04
0.245         	1.364622e-03 -8.587787e-04 -7.733717e-01	8.453515e-04 -8.118592e-04 -7.733364e-01	5.192702e-04 -4.691953e-05 -3.523319e-05
0.245         	1.364622e-03 -8.587787e-04 -7.733717e-01	8.453515e-04 -8.118592e-04 -7.733364e-01	5.192702e-04 -4.691953e-05 -3.523319e-05
0.25          	1.233526e-03 -1.089920e-04 -7.727717e-01	6.928406e-04 -5.215036e-05 -7.736536e-01	5.406852e-04 -5.684162e-05 8.818508e-04
0.25          	1.233526e-03 -1.089920e-04 -7.727717e-01	6.928406e-04 -5.215036e-05 -7.736536e-01	5.406852e-04 -5.684162e-05 8.818508e-04
0.255         	2.155850e-03 -2.145851e-04 -7.728637e-01	1.636428e-03 -1.938297e-04 -7.732194e-01	5.194216e-04 -2.075542e-05 3.557327e-04
0.255         	2.155850e-03 -2.145851e-04 -7.728637e-01	1.636428e-03 -1.938297e-04 -7.732194e-01	5.194216e-04 -2.075542e-05 3.557327e-04
0.26          	1.723782e-03 -5.568285e-04 -7.731276e-01	1.172999e-03 -5.431950e-04 -7.732616e-01	5.507838e-04 -1.363358e-05 1.340108e-04
0.26          	1.723782e-03 -5.568285e-04 -7.731276e-01	1.172999e-03 -5.431950e-04 -7.732616e-01	5.507838e-04 -1.363358e-05 1.340108e-04
0.265         	1.502710e-03 -8.403734e-04 -7.730160e-01	9.104915e-04 -7.933906e-04 -7.733073e-01	5.922187e-04 -4.698280e-05 2.912864e-04
0.265         	1.502710e-03 -8.403734e-04 -7.730160e-01	9.104915e-04 -7.933906e-04 -7.733073e-01	5.922187e-04 -4.698280e-05 2.912864e-04
0.27          	1.502980e-03 3.945474e-05 -7.725126e-01	8.879804e-04 1.268633e-04 -7.736305e-01	6.149992e-04 -8.740861e-05 1.117850e-03
0.27          	1.502980e-03 3.945474e-05 -7.725126e-01	8.879804e-04 1.268633e-04 -7.736305e-01	6.149992e-04 -8.740861e-05 1.117850e-03
0.275         	2.280979e-03 1.045872e-04 -7.724975e-01	1.655603e-03 1.100088e-04 -7.732248e-01	6.253762e-04 -5.421581e-06 7.272621e-04
0.275         	2.280979e-03 1.045872e-04 -7.724975e-01	1.655603e-03 1.100088e-04 -7.732248e-01	6.253762e-04 -5.421581e-06 7.272621e-04
0.28          	2.031048e-03 3.089920e-05 -7.726991e-01	1.375066e-03 5.450182e-05 -7.732855e-01	6.559819e-04 -2.360263e-05 5.863805e-04
0.28          	2.031048e-03 3.089920e-05 -7.726991e-01	1.375066e-03 5.450182e-05 -7.732855e-01	6.559819e-04 -2.360263e-05 5.863805e-04
0.285         	2.141228e-03 7.417147e-06 -7.727024e-01	1.452203e-03 7.051672e-05 -7.732802e-01	6.890258e-04 -6.309957e-05 5.777859e-04
0.285         	2.141228e-03 7.417147e-06 -7.727024e-01	1.452203e-03 7.051672e-05 -7.732802e-01	6.890258e-04 -6.309957e-05 5.777859e-04
0.29          	1.843729e-03 8.881865e-04 -7.723078e-01	1.152736e-03 9.380244e-04 -7.735812e-01	6.909932e-04 -4.983788e-05 1.273381e-03
0.29          	1.843729e-03 8.881865e-04 -7.723078e-01	1.152736e-03 9.380244e-04 -7.735812e-01	6.909932e-04 -4.983788e-05 1.273381e-03
0.295         	2.881435e-03 -9.722444e-05 -7.723959e-01	2.200728e-03 -1.004011e-04 -7.732591e-01	6.807074e-04 3.176650e-06 8.632150e-04
0.295         	2.881435e-03 -9.722444e-05 -7.723959e-01	2.200728e-03 -1.004011e-04 -7.732591e-01	6.807074e-04 3.176650e-06 8.632150e-04
0.295         	2.881435e-03 -9.722444e-05 -7.723959e-01	2.200728e-03 -1.004011e-04 -7.732591e-01	6.807074e-04 3.176650e-06 8.632150e-04
0.3           	2.470507e-03 3.862741e-04 -7.725420e-01	1.741607e-03 3.998983e-04 -7.733003e-01	7.288996e-04 -1.362418e-05 7.582887e-04
0.3           	2.470507e-03 3.862741e-04 -7.725420e-01	1.741607e-03 3.998983e-04 -7.733003e-01	7.288996e-04 -1.362418e-05 7.582887e-04
0.305         	2.801199e-03 -1.029718e-03 -7.725814e-01	2.034925e-03 -9.704434e-04 -7.732730e-01	7.662741e-04 -5.927432e-05 6.915728e-04
0.305         	2.801199e-03 -1.029718e-03 -7.725814e-01	2.034925e-03 -9.704434e-04 -7.732730e-01	7.662741e-04 -5.927432e-05 6.915728e-04
0.31          	2.622502e-03 -1.948094e-04 -7.721952e-01	1.842392e-03 -1.550929e-04 -7.735758e-01	7.801099e-04 -3.971652e-05 1.380668e-03
0.31          	2.622502e-03 -1.948094e-04 -7.721952e-01	1.842392e-03 -1.550929e-04 -7.735758e-01	7.801099e-04 -3.971652e-05 1.380668e-03
0.31          	2.622502e-03 -1.948094e-04 -7.721952e-01	1.842392e-03 -1.550929e-04 -7.735758e-01	7.801099e-04 -3.971652e-05 1.380668e-03
0.315         	3.445857e-03 -4.003839e-04 -7.722137e-01	2.675454e-03 -3.893204e-04 -7.732675e-01	7.704038e-04 -1.106345e-05 1.053823e-03
0.315         	3.445857e-03 -4.003839e-04 -7.722137e-01	2.675454e-03 -3.893204e-04 -7.732675e-01	7.704038e-04 -1.106345e-05 1.053823e-03
0.32          	3.108770e-03 -9.535574e-05 -7.724439e-01	2.286271e-03 -7.932181e-05 -7.733121e-01	8.224994e-04 -1.603392e-05 8.681415e-04
0.32          	3.108770e-03 -9.535574e-05 -7.724439e-01	2.286271e-03 -7.932181e-05 -7.733121e-01	8.224994e-04 -1.603392e-05 8.681415e-04
0.325         	3.133259e-03 -1.450646e-04 -7.724170e-01	2.279732e-03 -1.094866e-04 -7.732784e-01	8.535264e-04 -3.557799e-05 8.614142e-04
0.325         	3.133259e-03 -1.450646e-04 -7.724170e-01	2.279732e-03 -1.094866e-04 -7.732784e-01	8.535264e-04 -3.557799e-05 8.614142e-04
0.33          	3.096851e-03 2.566901e-04 -7.720266e-01	2.208727e-03 2.680199e-04 -7.735917e-01	8.881239e-04 -1.132979e-05 1.565117e-03
0.33          	3.096851e-03 2.566901e-04 -7.720266e-01	2.208727e-03 2.680199e-04 -7.735917e-01	8.881239e-04 -1.132979e-05 1.565117e-03
0.335         	3.758053e-03 9.023070e-04 -7.719483e-01	2.893063e-03 9.276518e-04 -7.732462e-01	8.649902e-04 -2.534478e-05 1.297925e-03
0.335         	3.758053e-03 9.023070e-04 -7.719483e-01	2.893063e-03 9.276518e-04 -7.732462e-01	8.649902e-04 -2.534478e-05 1.297925e-03
0.34          	3.395193e-03 1.073883e-03 -7.721081e-01	2.473634e-03 1.110245e-03 -7.733079e-01	9.215592e-04 -3.636205e-05 1.199777e-03
0.34          	3.395193e-03 1.073883e-03 -7.721081e-01	2.473634e-03 1.110245e-03 -7.733079e-01	9.215592e-04 -3.636205e-05 1.199777e-03
0.345         	3.539017e-03 6.454668e-04 -7.720273e-01	2.604291e-03 6.660149e-04 -7.732657e-01	9.347252e-04 -2.054813e-05 1.238476e-03
0.345         	3.539017e-03 6.454668e-04 -7.720273e-01	2.604291e-03 6.660149e-04 -7.732657e-01	9.347252e-04 -2.054813e-05 1.238476e-03
0.35          	3.893964e-03 7.361138e-04 -7.716290e-01	2.909725e-03 7.416785e-04 -7.735280e-01	9.842399e-04 -5.564706e-06 1.898915e-03
0.35          	3.893964e-03 7.361138e-04 -7.716290e-01	2.909725e-03 7.416785e-04 -7.735280e-01	9.842399e-04 -5.564706e-06 1.898915e-03
0.355         	4.387203e-03 -3.748967e-04 -7.715290e-01	3.385429e-03 -3.414835e-04 -7.732756e-01	1.001774e-03 -3.341319e-05 1.746625e-03
0.355         	4.387203e-03 -3.748967e-04 -7.715290e-01	3.385429e-03 -3.414835e-04 -7.732756e-01	1.001774e-03 -3.341319e-05 1.746625e-03
0.36          	3.812507e-03 -4.621225e-05 -7.717491e-01	2.780197e-03 -2.235409e-05 -7.733263e-01	1.032309e-03 -2.385816e-05 1.577159e-03
0.36          	3.812507e-03 -4.621225e-05 -7.717491e-01	2.780197e-03 -2.235409e-05 -7.733263e-01	1.032309e-03 -2.385816e-05 1.577159e-03
0.365         	4.644517e-03 -3.668633e-04 -7.716323e-01	3.576010e-03 -3.491186e-04 -7.732728e-01	1.068507e-03 -1.774479e-05 1.640511e-03
0.365         	4.644517e-03 -3.668633e-04 -7.716323e-01	3.576010e-03 -3.491186e-04 -7.732728e-01	1.068507e-03 -1.774479e-05 1.640511e-03
0.37          	4.747846e-03 -6.070537e-04 -7.711691e-01	3.647695e-03 -5.903515e-04 -7.735148e-01	1.100150e-03 -1.670214e-05 2.345701e-03
0.37          	4.747846e-03 -6.070537e-04 -7.711691e-01	3.647695e-03 -5.903515e-04 -7.735148e-01	1.100150e-03 -1.670214e-05 2.345701e-03
0.375         	5.465470e-03 -7.352228e-04 -7.712248e-01	4.371700e-03 -6.929733e-04 -7.732752e-01	1.093770e-03 -4.224949e-05 2.050439e-03
0.375         	5.465470e-03 -7.352228e-04 -7.712248e-01	4.371700e-03 -6.929733e-04 -7.732752e-01	1.093770e-03 -4.224949e-05 2.050439e-03
0.38          	4.963517e-03 -1.772948e-04 -7.713581e-01	3.829881e-03 -1.601322e-04 -7.733061e-01	1.133637e-03 -1.716264e-05 1.947959e-03
0.38          	4.963517e-03 -1.772948e-04 -7.713581e-01	3.829881e-03 -1.601322e-04 -7.733061e-01	1.133637e-03 -1.716264e-05 1.947959e-03
0.385         	5.704078e-03 -4.606819e-04 -7.712802e-01	4.535271e-03 -4.044326e-04 -7.733108e-01	1.168808e-03 -5.624936e-05 2.030510e-03
0.385         	5.704078e-03 -4.606819e-04 -7.712802e-01	4.535271e-03 -4.044326e-04 -7.733108e-01	1.168808e-03 -5.624936e-05 2.030510e-03
0.39          	5.795493e-03 7.306245e-04 -7.708878e-01	4.580754e-03 7.860309e-04 -7.734946e-01	1.214740e-03 -5.540639e-05 2.606877e-03
0.39          	5.795493e-03 7.306245e-04 -7.708878e-01	4.580754e-03 7.860309e-04 -7.734946e-01	1.214740e-03 -5.540639e-05 2.606877e-03
0.395         	6.397188e-03 6.535958e-04 -7.710247e-01	5.176592e-03 6.920685e-04 -7.732947e-01	1.220596e-03 -3.847263e-05 2.269953e-03
0.395         	6.397188e-03 6.535958e-04 -7.710247e-01	5.176592e-03 6.920685e-04 -7.732947e-01	1.220596e-03 -3.847263e-05 2.269953e-03
0.4           	5.912764e-03 1.256461e-03 -7.713239e-01	4.644476e-03 1.272129e-03 -7.733038e-01	1.268288e-03 -1.566793e-05 1.979899e-03
0.4           	5.912764e-03 1.256461e-03 -7.713239e-01	4.644476e-03 1.272129e-03 -7.733038e-01	1.268288e-03 -1.566793e-05 1.979899e-03
0.405         	6.490798e-03 3.731108e-04 -7.712701e-01	5.172148e-03 4.201086e-04 -7.733477e-01	1.318650e-03 -4.699783e-05 2.077599e-03
0.405         	6.490798e-03 3.731108e-04 -7.712701e-01	5.172148e-03 4.201086e-04 -7.733477e-01	1.318650e-03 -4.699783e-05 2.077599e-03
0.41          	6.801886e-03 -2.237673e-04 -7.709530e-01	5.438774e-03 -1.744044e-04 -7.734851e-01	1.363112e-03 -4.936290e-05 2.532043e-03
0.41          	6.801886e-03 -2.237673e-04 -7.709530e-01	5.438774e-03 -1.744044e-04 -7.734851e-01	1.363112e-03 -4.936290e-05 2.532043e-03
0.415         	6.920274e-03 -1.116162e-05 -7.711392e-01	5.553837e-03 -9.332410e-06 -7.733070e-01	1.366437e-03 -1.829213e-06 2.167823e-03
0.415         	6.920274e-03 -1.116162e-05 -7.711392e-01	5.553837e-03 -9.332410e-06 -7.733070e-01	1.366437e-03 -1.829213e-06 2.167823e-03
0.42          	7.436693e-03 -9.522464e-04 -7.713022e-01	6.012757e-03 -9.404234e-04 -7.733343e-01	1.423936e-03 -1.182302e-05 2.032156e-03
0.42          	7.436693e-03 -9.522464e-04 -7.713022e-01	6.012757e-03 -9.404234e-04 -7.733343e-01	1.423936e-03 -1.182302e-05 2.032156e-03
0.425         	8.233104e-03 -1.444333e-03 -7.712715e-01	6.774203e-03 -1.411188e-03 -7.733658e-01	1.458901e-03 -3.314462e-05 2.094366e-03
0.425         	8.233104e-03 -1.444333e-03 -7.712715e-01	6.774203e-03 -1.411188e-03 -7.733658e-01	1.458901e-03 -3.314462e-05 2.094366e-03
0.43          	8.888342e-03 -1.003499e-03 -7.708884e-01	7.393310e-03 -9.826743e-04 -7.734858e-01	1.495032e-03 -2.082428e-05 2.597435e-03
0.43          	8.888342e-03 -1.003499e-03 -7.708884e-01	7.393310e-03 -9.826743e-04 -7.734858e-01	1.495032e-03 -2.082428e-05 2.597435e-03
0.435         	9.409153e-03 -1.879078e-04 -7.710376e-01	7.900534e-03 -2.016368e-04 -7.733264e-01	1.508620e-03 1.372895e-05 2.288767e-03
0.435         	9.409153e-03 -1.879078e-04 -7.710376e-01	7.900534e-03 -2.016368e-04 -7.733264e-01	1.508620e-03 1.372895e-05 2.288767e-03
0.44          	9.597565e-03 2.325808e-04 -7.711405e-01	8.043724e-03 2.253972e-04 -7.733531e-01	1.553841e-03 7.183594e-06 2.212674e-03
0.44          	9.597565e-03 2.325808e-04 -7.711405e-01	8.043724e-03 2.253972e-04 -7.733531e-01	1.553841e-03 7.183594e-06 2.212674e-03
0.445         	9.745187e-03 3.654654e-04 -7.709894e-01	8.145975e-03 3.749306e-04 -7.734001e-01	1.599212e-03 -9.465195e-06 2.410722e-03
0.445         	9.745187e-03 3.654654e-04 -7.709894e-01	8.145975e-03 3.749306e-04 -7.734001e-01	1.599212e-03 -9.465195e-06 2.410722e-03
0.45          	9.727228e-03 1.431440e-03 -7.705418e-01	8.073860e-03 1.444015e-03 -7.734892e-01	1.653367e-03 -1.257552e-05 2.947471e-03
0.45          	9.727228e-03 1.431440e-03 -7.705418e-01	8.073860e-03 1.444015e-03 -7.734892e-01	1.653367e-03 -1.257552e-05 2.947471e-03
0.455         	1.022352e-02 1.979433e-03 -7.705845e-01	8.550944e-03 1.969241e-03 -7.733376e-01	1.672577e-03 1.019251e-05 2.753107e-03
0.455         	1.022352e-02 1.979433e-03 -7.705845e-01	8.550944e-03 1.969241e-03 -7.733376e-01	1.672577e-03 1.019251e-05 2.753107e-03
0.46          	9.965790e-03 1.908413e-03 -7.707070e-01	8.247892e-03 1.897478e-03 -7.733708e-01	1.717898e-03 1.093428e-05 2.663782e-03
0.46          	9.965790e-03 1.908413e-03 -7.707070e-01	8.247892e-03 1.897478e-03 -7.733708e-01	1.717898e-03 1.093428e-05 2.663782e-03
0.465         	9.910525e-03 1.435368e-04 -7.705636e-01	8.150988e-03 1.336985e-04 -7.734209e-01	1.759537e-03 9.838319e-06 2.857392e-03
0.465         	9.910525e-03 1.435368e-04 -7.705636e-01	8.150988e-03 1.336985e-04 -7.734209e-01	1.759537e-03 9.838319e-06 2.857392e-03
0.47          	1.102593e-02 -7.520555e-04 -7.701480e-01	9.219056e-03 -7.442324e-04 -7.735138e-01	1.806871e-03 -7.823109e-06 3.365746e-03
0.47          	1.102593e-02 -7.520555e-04 -7.701480e-01	9.219056e-03 -7.442324e-04 -7.735138e-01	1.806871e-03 -7.823109e-06 3.365746e-03
0.475         	1.176238e-02 -4.274421e-04 -7.702687e-01	9.931024e-03 -4.308046e-04 -7.733534e-01	1.831360e-03 3.362483e-06 3.084706e-03
0.475         	1.176238e-02 -4.274421e-04 -7.702687e-01	9.931024e-03 -4.308046e-04 -7.733534e-01	1.831360e-03 3.362483e-06 3.084706e-03
0.48          	1.216539e-02 -7.487177e-04 -7.704138e-01	1.028290e-02 -7.621349e-04 -7.733872e-01	1.882488e-03 1.341714e-05 2.973368e-03
0.48          	1.216539e-02 -7.487177e-04 -7.704138e-01	1.028290e-02 -7.621349e-04 -7.733872e-01	1.882488e-03 1.341714e-05 2.973368e-03
0.485         	1.316662e-02 -1.411645e-03 -7.703808e-01	1.124654e-02 -1.412759e-03 -7.734306e-01	1.920078e-03 1.114190e-06 3.049790e-03
0.485         	1.316662e-02 -1.411645e-03 -7.703808e-01	1.124654e-02 -1.412759e-03 -7.734306e-01	1.920078e-03 1.114190e-06 3.049790e-03
0.49          	1.428175e-02 -5.470202e-04 -7.700777e-01	1.231067e-02 -5.299760e-04 -7.735452e-01	1.971079e-03 -1.704423e-05 3.467560e-03
0.49          	1.428175e-02 -5.470202e-04 -7.700777e-01	1.231067e-02 -5.299760e-04 -7.735452e-01	1.971079e-03 -1.704423e-05 3.467560e-03
0.495         	1.435873e-02 4.715759e-04 -7.702526e-01	1.233265e-02 4.754976e-04 -7.733788e-01	2.026081e-03 -3.921714e-06 3.126222e-03
0.495         	1.435873e-02 4.715759e-04 -7.702526e-01	1.233265e-02 4.754976e-04 -7.733788e-01	2.026081e-03 -3.921714e-06 3.126222e-03
0.5           	1.452476e-02 9.021629e-04 -7.704689e-01	1.245898e-02 8.986437e-04 -7.734129e-01	2.065780e-03 3.519246e-06 2.943946e-03
0.5           	1.452476e-02 9.021629e-04 -7.704689e-01	1.245898e-02 8.986437e-04 -7.734129e-01	2.065780e-03 3.519246e-06 2.943946e-03
0.505         	1.412649e-02 7.095542e-04 -7.704221e-01	1.202971e-02 7.261636e-04 -7.734534e-01	2.096771e-03 -1.660940e-05 3.031333e-03
0.505         	1.412649e-02 7.095542e-04 -7.704221e-01	1.202971e-02 7.261636e-04 -7.734534e-01	2.096771e-03 -1.660940e-05 3.031333e-03
0.51          	1.478950e-02 1.708155e-03 -7.702229e-01	1.265349e-02 1.725122e-03 -7.735579e-01	2.136009e-03 -1.696754e-05 3.335074e-03
0.51          	1.478950e-02 1.708155e-03 -7.702229e-01	1.265349e-02 1.725122e-03 -7.735579e-01	2.136009e-03 -1.696754e-05 3.335074e-03
0.515         	1.410364e-02 1.754562e-03 -7.704058e-01	1.191425e-02 1.768944e-03 -7.734175e-01	2.189389e-03 -1.438289e-05 3.011744e-03
0.515         	1.410364e-02 1.754562e-03 -7.704058e-01	1.191425e-02 1.768944e-03 -7.734175e-01	2.189389e-03 -1.438289e-05 3.011744e-03